# vtk DataFile Version 3.0
d-2__ created by libgimli-v1.5.0-1-g5991b6ac
ASCII
DATASET UNSTRUCTURED_GRID
POINTS 3141 double
31.899015488896	0	0
31.899015488896	-0.6208	0
41.714984511104	-0.6208	0
41.714984511104	94	0
25.691015488896	0	0
25.691015488896	-6.8288	0
47.922984511104	94	0
47.922984511104	87.1712	0
36.952	0	0
36.8225	0.5	0
36.5635	1.5	0
36.434	2	0
36.446	2.5	0
36.47	3.5	0
36.482	4	0
36.54325	4.5	0
36.66575	5.5	0
36.727	6	0
36.7265	6.5	0
36.7255	7.5	0
36.725	8	0
36.736	8.5	0
36.758	9.5	0
36.769	10	0
36.786	10.5	0
36.82	11.5	0
36.837	12	0
36.8565	12.5	0
36.8955	13.5	0
36.915	14	0
36.90125	14.5	0
36.87375	15.5	0
36.86	16	0
36.806	16.5	0
36.698	17.5	0
36.644	18	0
36.622	18.5	0
36.578	19.5	0
36.556	20	0
36.4715	20.5	0
36.3025	21.5	0
36.218	22	0
36.28975	22.5	0
36.43325	23.5	0
36.505	24	0
36.44875	24.5	0
36.33625	25.5	0
36.28	26	0
36.325	26.5	0
36.415	27.5	0
36.46	28	0
36.50175	28.5	0
36.58525	29.5	0
36.627	30	0
36.693	30.5	0
36.825	31.5	0
36.891	32	0
36.9515	32.5	0
37.0725	33.5	0
37.133	34	0
37.16275	34.5	0
37.22225	35.5	0
37.252	36	0
37.26475	36.5	0
37.29025	37.5	0
37.303	38	0
37.33475	38.5	0
37.39825	39.5	0
37.43	40	0
37.44875	40.5	0
37.48625	41.5	0
37.505	42	0
37.50725	42.5	0
37.51175	43.5	0
37.514	44	0
37.53125	44.5	0
37.56575	45.5	0
37.583	46	0
37.57975	46.5	0
37.57325	47.5	0
37.57	48	0
37.562	48.5	0
37.546	49.5	0
37.538	50	0
37.53025	50.5	0
37.51475	51.5	0
37.507	52	0
37.515	52.5	0
37.531	53.5	0
37.539	54	0
37.536	54.5	0
37.53	55.5	0
37.527	56	0
37.5345	56.5	0
37.5495	57.5	0
37.557	58	0
37.53325	58.5	0
37.48575	59.5	0
37.462	60	0
37.4425	60.5	0
37.4035	61.5	0
37.384	62	0
37.3925	62.5	0
37.4095	63.5	0
37.418	64	0
37.36075	64.5	0
37.24625	65.5	0
37.189	66	0
37.126	66.5	0
37	67.5	0
36.937	68	0
36.84175	68.5	0
36.65125	69.5	0
36.556	70	0
36.53025	70.5	0
36.47875	71.5	0
36.453	72	0
36.42625	72.5	0
36.37275	73.5	0
36.346	74	0
36.3495	74.5	0
36.3565	75.5	0
36.36	76	0
36.34975	76.5	0
36.32925	77.5	0
36.319	78	0
36.3275	78.5	0
36.3445	79.5	0
36.353	80	0
36.36125	80.5	0
36.37775	81.5	0
36.386	82	0
36.35525	82.5	0
36.29375	83.5	0
36.263	84	0
36.26625	84.5	0
36.27275	85.5	0
36.276	86	0
36.25825	86.5	0
36.22275	87.5	0
36.205	88	0
36.19775	88.5	0
36.18325	89.5	0
36.176	90	0
36.146	90.5	0
36.086	91.5	0
36.056	92	0
36.04975	92.5	0
36.03725	93.5	0
36.031	94	0
27.306097085267	0	0
41.714984511104	60.922872673837	0
37.510148972774	43.144216172107	0
39.35143404474	50.929437381794	0
36.807	-0.6208	0
41.714984511104	28.922872673837	0
41.714984511104	76.922872673837	0
32.408123029021	21.572108086053	0
40.794341975121	57.030262068994	0
38.430791508757	47.03682677695	0
41.714984511104	14.151036336919	0
41.714984511104	68.922872673837	0
35.668863900809	35.35899496242	0
41.714984511104	44.922872673837	0
45.397554655035	76.493315093211	0
29.857110057144	10.786054043027	0
41.714984511104	52.922872673837	0
37.970470240766	45.090521474529	0
36.589506436792	39.251605567264	0
34.038493464915	28.465551524237	0
41.714984511104	36.922872673837	0
37.049827704783	41.197910869685	0
43.556269583069	68.708093883524	0
41.714984511104	56.922872673837	0
40.07288800993	53.979849725394	0
37.74030960677	44.117368823318	0
38.200630874762	46.063674125739	0
36.1291851688	37.305300264842	0
34.853678682862	31.912273243328	0
37.279988338779	42.171063520896	0
37.625229289772	43.630792497712	0
37.567689131273	43.38750433491	0
37.395068655777	42.657639846501	0
37.512875	43.75	0
37.510711467079	43.269214906501	0
37.509023984165	42.894218703318	0
37.51123073354	43.384607453251	0
37.538919052024	43.265860253508	0
37.452608814276	42.900928009304	0
37.508136992082	42.697109351659	0
37.51149036677	43.442303726625	0
37.596459210523	43.509148416311	0
37.553304091649	43.326682294209	0
37.510971100309	43.326911179876	0
37.632137340654	43.259752070679	0
37.639816499928	43.353728112517	0
37.781760329295	43.364246978762	0
37.665923337297	43.430380126206	0
37.5123125	43.625	0
37.744820639842	43.537301529369	0
37.423838735026	42.779283927903	0
37.771833771167	43.103412040804	0
37.682769448271	43.874080660515	0
37.79762415178	43.704957944857	0
37.337528497278	42.414351683699	0
37.803839568644	42.797826667257	0
37.933406662802	43.898476519989	0
38.004089265047	43.584483375207	0
37.506125	42.25	0
37.750343629852	42.575684944492	0
38.019432067281	43.280304688976	0
37.799496371279	42.348807531439	0
38.152495188109	42.981766411033	0
37.812843836603	42.057601395394	0
41.714984511104	40.922872673837	0
38.392097428497	43.366729340045	0
37.522625	44.25	0
37.164908021781	41.684487195291	0
37.855389923768	44.603945148923	0
37.854175322008	41.684085893431	0
38.089387796991	42.172594734513	0
38.137604554596	42.531789724502	0
38.575614817689	42.034234085819	0
36.144744746724	8.3766467383987	0
36.474426119794	38.765029241658	0
37.797849765269	44.36065698612	0
38.234654181454	44.541134629974	0
38.013926331588	44.171310239455	0
38.364772250999	43.939395523791	0
37.5485	45	0
38.79718930479	42.807927214902	0
38.128237160239	41.884100737254	0
35.99474166543	6.5740683789065	0
38.311288479404	41.468370366293	0
38.958061351715	44.408515203229	0
37.4675	41	0
34.353007744448	-0.6208	0
36.819667070787	40.224758218474	0
38.377191457864	40.733964619933	0
37.144165163617	40.260365694085	0
36.934747387785	40.71133454408	0
36.704586753789	39.738181892869	0
37.087661631969	39.865735111972	0
37.029300955164	39.471104534872	0
37.3665	39	0
35.892501168021	7.7021199983536	0
34.425507744448	0	0
37.310614033998	2.5188196725717	0
35.412327204787	21.498627522999	0
36.788460225739	25.871002286398	0
35.580471269441	27.604989516656	0
37.24816271125	26.438280602304	0
35.625214416849	23.694625206573	0
41.714984511104	6.7651181684594	0
36.102539358294	17.575201905393	0
37.325430042506	28.27710594357	0
35.967996518319	29.820314007098	0
41.714984511104	21.536954505378	0
36.036480842347	31.785623756335	0
35.820229865994	4.4451672055035	0
41.714984511104	85.461436336919	0
37.21739344341	77.655094394037	0
38.872992255552	94	0
36.986776453223	89.722853172102	0
37.141078948808	74.100336267705	0
37.421890732643	69.833822265693	0
37.121346476381	80.595686351666	0
36.095417355651	12.283961234017	0
37.493122607274	11.366677706119	0
37.528412914674	15.771530465342	0
37.660682027846	31.466759242915	0
35.261271291835	33.635634102874	0
35.899024534804	36.332147613631	0
41.714984511104	32.922872673837	0
38.037533826601	37.826558983146	0
37.702020540427	67.806553309764	0
38.245750484309	60.378317288609	0
38.125023263541	62.272508717188	0
39.712161027335	52.454643553594	0
38.147639863562	63.73739930962	0
36.359345802796	38.278452916053	0
38.891112776749	48.983132079372	0
37.687336047083	13.774447710808	0
38.660952142753	48.009979428161	0
38.452922724	54.269453114541	0
38.182639775662	56.527677579844	0
38.278615961778	57.609708166468	0
37.884453716585	41.188533741946	0
36.929707219233	1.944169345596	0
38.033996127776	-0.6208	0
37.127739828898	4.130421336709	0
35.564013644413	22.407942885109	0
35.851379974957	19.845772343005	0
35.892329601753	28.344399106026	0
37.092575028705	24.360633863139	0
41.714984511104	46.922872673837	0
37.611727216375	91.658617896057	0
37.404276898905	8.1999982154835	0
37.638020889803	6.4419588214957	0
36.192008519911	14.855512885274	0
36.186503365229	13.142958585127	0
37.182566106755	29.384349389506	0
36.972620242191	27.621244621677	0
34.446086073888	30.188912383783	0
36.416236593684	32.358943209536	0
35.843103528122	3.7698339560432	0
37.004209105578	83.835576914949	0
36.990021808836	86.266129306188	0
37.131815860049	76.580693368882	0
36.955212718462	78.332121421446	0
36.722839963002	90.34985583166	0
36.928268355235	88.676032117864	0
36.947801349835	73.540537326105	0
37.166688059998	71.57439789171	0
36.969425907953	70.228994144822	0
36.943131254624	79.760192731312	0
37.259352661838	81.658263888273	0
31.132616543082	16.17908106454	0
36.163438318936	10.218122613723	0
36.230171675823	11.670982918854	0
37.481451701891	12.173137279643	0
37.6406870324	10.300771195174	0
37.485877816673	16.515826250699	0
37.514063846436	32.236702858633	0
36.672668279754	34.282239985573	0
36.553115120445	35.738834868014	0
37.965861997692	35.714075131288	0
37.735532566832	33.675086837988	0
38.054908890531	38.620906133242	0
37.682544696944	38.236906995131	0
41.714984511104	64.922872673837	0
37.487373257236	68.384302112122	0
38.016032061579	59.673960590541	0
37.917835267266	61.669458418648	0
38.073476074382	52.219757200891	0
42.635627047086	64.815483278681	0
36.783596601873	37.734907561708	0
39.121273410745	49.956284730583	0
37.579827186228	14.49716665367	0
38.146640295144	48.383653998734	0
38.101813204213	53.600196453302	0
38.060356636256	55.708084174903	0
38.085396893226	58.295671814973	0
37.810364659078	40.742889466337	0
36.936936440526	38.379731649785	0
36.135407299634	9.0539562731755	0
36.140532095732	5.7303437127376	0
35.952	0	0
35.580003872224	-0.6208	0
35.771086522558	1.3561698120187	0
37.248125145809	1.2759052740282	0
36.937051595167	3.6208094539489	0
36.024381529964	20.34913407251	0
37.236993585019	22.402453771528	0
37.40895563065	19.643132293913	0
35.058588893645	28.567189156146	0
36.991959352172	25.125217275054	0
37.065531148807	23.678511614362	0
33.223308246968	25.018829805145	0
37.180648238969	7.6611034659696	0
37.450389446687	5.4696798802534	0
36.418135433751	13.771279353411	0
37.170405695732	30.172308588218	0
36.936858862303	27.064760307038	0
35.861731467863	29.04998565844	0
36.429573517404	32.986512896526	0
35.057474987348	32.773953673101	0
36.79621378169	84.375204382521	0
36.825753589059	85.672883736907	0
36.996115378643	75.735730521358	0
37.031	94	0
36.798677853322	92.331033722898	0
36.811712520404	87.829858212965	0
37.0252666139	72.877244781475	0
36.937266849899	72.242164456284	0
37.68711083936	70.641662123556	0
36.96662743723	70.889470760674	0
37.047705816245	79.037962111147	0
37.011787490655	82.326368224579	0
36.420422998263	14.223361419664	0
36.292921085029	9.6819137827486	0
35.300669337491	11.577421469482	0
36.11421143873	10.99371584487	0
38.543614189027	12.098448599773	0
37.676348689026	12.902129238292	0
[...]
CELL_DATA 5832
SCALARS Marker double 1
LOOKUP_TABLE default
-1 -1 -1 -1 -1 -1 -1 -1 -1 -1 -1 -1 -1 -1 -1 -1 -1 -1 -1 -1 -1 -1 -1 -1 -1 -1 -1 -1 0 0 0 0 -1 -1 -1 -1 -1 -1 -1 -1 -1 -1 -1 -1 1 1 1 1 2 2 2 2 -1 -1 -1 -1 3 3 3 3 -1 -1 -1 -1 -1 -1 -1 -1 4 4 4 4 -1 -1 -1 -1 5 5 5 5 -1 -1 -1 -1 -1 -1 -1 -1 -1 -1 -1 -1 -1 -1 -1 -1 6 6 6 6 7 7 7 7 -1 -1 -1 -1 8 8 8 8 9 9 9 9 -1 -1 -1 -1 10 10 10 10 -1 -1 -1 -1 11 11 11 11 -1 -1 -1 -1 12 12 12 12 13 13 13 13 -1 -1 -1 -1 14 14 14 14 15 15 15 15 -1 -1 -1 -1 16 16 16 16 -1 -1 -1 -1 17 17 17 17 -1 -1 -1 -1 18 18 18 18 -1 -1 -1 -1 19 19 19 19 -1 -1 -1 -1 20 20 20 20 -1 -1 -1 -1 21 21 21 21 -1 -1 -1 -1 22 22 22 22 23 23 23 23 24 24 24 24 -1 -1 -1 -1 25 25 25 25 26 26 26 26 27 27 27 27 -1 -1 -1 -1 28 28 28 28 29 29 29 29 -1 -1 -1 -1 30 30 30 30 31 31 31 31 -1 -1 -1 -1 -1 -1 -1 -1 -1 -1 -1 -1 -1 -1 -1 -1 -1 -1 -1 -1 32 32 32 32 -1 -1 -1 -1 33 33 33 33 -1 -1 -1 -1 -1 -1 -1 -1 34 34 34 34 35 35 35 35 36 36 36 36 -1 -1 -1 -1 -1 -1 -1 -1 -1 -1 -1 -1 -1 -1 -1 -1 -1 -1 -1 -1 -1 -1 -1 -1 37 37 37 37 -1 -1 -1 -1 38 38 38 38 -1 -1 -1 -1 -1 -1 -1 -1 39 39 39 39 40 40 40 40 41 41 41 41 -1 -1 -1 -1 -1 -1 -1 -1 -1 -1 -1 -1 42 42 42 42 -1 -1 -1 -1 43 43 43 43 44 44 44 44 -1 -1 -1 -1 -1 -1 -1 -1 -1 -1 -1 -1 -1 -1 -1 -1 -1 -1 -1 -1 45 45 45 45 -1 -1 -1 -1 -1 -1 -1 -1 46 46 46 46 -1 -1 -1 -1 47 47 47 47 48 48 48 48 -1 -1 -1 -1 -1 -1 -1 -1 49 49 49 49 -1 -1 -1 -1 50 50 50 50 51 51 51 51 -1 -1 -1 -1 -1 -1 -1 -1 -1 -1 -1 -1 -1 -1 -1 -1 -1 -1 -1 -1 -1 -1 -1 -1 -1 -1 -1 -1 -1 -1 -1 -1 -1 -1 -1 -1 -1 -1 -1 -1 -1 -1 -1 -1 -1 -1 -1 -1 52 52 52 52 -1 -1 -1 -1 -1 -1 -1 -1 -1 -1 -1 -1 -1 -1 -1 -1 -1 -1 -1 -1 -1 -1 -1 -1 -1 -1 -1 -1 53 53 53 53 -1 -1 -1 -1 54 54 54 54 55 55 55 55 -1 -1 -1 -1 -1 -1 -1 -1 56 56 56 56 57 57 57 57 -1 -1 -1 -1 -1 -1 -1 -1 58 58 58 58 -1 -1 -1 -1 59 59 59 59 -1 -1 -1 -1 60 60 60 60 61 61 61 61 -1 -1 -1 -1 62 62 62 62 63 63 63 63 -1 -1 -1 -1 64 64 64 64 65 65 65 65 -1 -1 -1 -1 66 66 66 66 67 67 67 67 68 68 68 68 -1 -1 -1 -1 69 69 69 69 -1 -1 -1 -1 70 70 70 70 71 71 71 71 72 72 72 72 -1 -1 -1 -1 73 73 73 73 -1 -1 -1 -1 74 74 74 74 75 75 75 75 -1 -1 -1 -1 -1 -1 -1 -1 76 76 76 76 77 77 77 77 -1 -1 -1 -1 -1 -1 -1 -1 78 78 78 78 -1 -1 -1 -1 -1 -1 -1 -1 79 79 79 79 -1 -1 -1 -1 80 80 80 80 81 81 81 81 -1 -1 -1 -1 82 82 82 82 83 83 83 83 84 84 84 84 85 85 85 85 -1 -1 -1 -1 -1 -1 -1 -1 86 86 86 86 -1 -1 -1 -1 87 87 87 87 -1 -1 -1 -1 -1 -1 -1 -1 88 88 88 88 -1 -1 -1 -1 89 89 89 89 -1 -1 -1 -1 -1 -1 -1 -1 90 90 90 90 -1 -1 -1 -1 -1 -1 -1 -1 -1 -1 -1 -1 -1 -1 -1 -1 -1 -1 -1 -1 -1 -1 -1 -1 -1 -1 -1 -1 -1 -1 -1 -1 91 91 91 91 92 92 92 92 -1 -1 -1 -1 93 93 93 93 -1 -1 -1 -1 94 94 94 94 -1 -1 -1 -1 -1 -1 -1 -1 95 95 95 95 -1 -1 -1 -1 -1 -1 -1 -1 -1 -1 -1 -1 -1 -1 -1 -1 -1 -1 -1 -1 -1 -1 -1 -1 96 96 96 96 97 97 97 97 -1 -1 -1 -1 98 98 98 98 -1 -1 -1 -1 -1 -1 -1 -1 -1 -1 -1 -1 -1 -1 -1 -1 -1 -1 -1 -1 99 99 99 99 -1 -1 -1 -1 100 100 100 100 -1 -1 -1 -1 -1 -1 -1 -1 -1 -1 -1 -1 -1 -1 -1 -1 -1 -1 -1 -1 -1 -1 -1 -1 -1 -1 -1 -1 101 101 101 101 102 102 102 102 -1 -1 -1 -1 -1 -1 -1 -1 -1 -1 -1 -1 103 103 103 103 -1 -1 -1 -1 -1 -1 -1 -1 -1 -1 -1 -1 -1 -1 -1 -1 104 104 104 104 105 105 105 105 -1 -1 -1 -1 106 106 106 106 -1 -1 -1 -1 -1 -1 -1 -1 -1 -1 -1 -1 107 107 107 107 -1 -1 -1 -1 -1 -1 -1 -1 -1 -1 -1 -1 -1 -1 -1 -1 -1 -1 -1 -1 -1 -1 -1 -1 -1 -1 -1 -1 -1 -1 -1 -1 -1 -1 -1 -1 108 108 108 108 -1 -1 -1 -1 -1 -1 -1 -1 -1 -1 -1 -1 -1 -1 -1 -1 -1 -1 -1 -1 109 109 109 109 -1 -1 -1 -1 -1 -1 -1 -1 -1 -1 -1 -1 -1 -1 -1 -1 110 110 110 110 -1 -1 -1 -1 -1 -1 -1 -1 -1 -1 -1 -1 -1 -1 -1 -1 -1 -1 -1 -1 -1 -1 -1 -1 -1 -1 -1 -1 -1 -1 -1 -1 -1 -1 -1 -1 -1 -1 -1 -1 111 111 111 111 -1 -1 -1 -1 -1 -1 -1 -1 112 112 112 112 113 113 113 113 114 114 114 114 115 115 115 115 116 116 116 116 117 117 117 117 118 118 118 118 119 119 119 119 120 120 120 120 121 121 121 121 122 122 122 122 123 123 123 123 124 124 124 124 125 125 125 125 -1 -1 -1 -1 -1 -1 -1 -1 126 126 126 126 -1 -1 -1 -1 127 127 127 127 128 128 128 128 129 129 129 129 130 130 130 130 -1 -1 -1 -1 131 131 131 131 132 132 132 132 133 133 133 133 134 134 134 134 135 135 135 135 136 136 136 136 137 137 137 137 -1 -1 -1 -1 138 138 138 138 139 139 139 139 140 140 140 140 141 141 141 141 142 142 142 142 143 143 143 143 144 144 144 144 145 145 145 145 -1 -1 -1 -1 -1 -1 -1 -1 146 146 146 146 147 147 147 147 148 148 148 148 149 149 149 149 -1 -1 -1 -1 150 150 150 150 151 151 151 151 152 152 152 152 153 153 153 153 -1 -1 -1 -1 -1 -1 -1 -1 154 154 154 154 -1 -1 -1 -1 -1 -1 -1 -1 155 155 155 155 -1 -1 -1 -1 -1 -1 -1 -1 -1 -1 -1 -1 -1 -1 -1 -1 -1 -1 -1 -1 -1 -1 -1 -1 -1 -1 -1 -1 -1 -1 -1 -1 -1 -1 -1 -1 156 156 156 156 -1 -1 -1 -1 -1 -1 -1 -1 -1 -1 -1 -1 -1 -1 -1 -1 157 157 157 157 158 158 158 158 -1 -1 -1 -1 -1 -1 -1 -1 -1 -1 -1 -1 159 159 159 159 -1 -1 -1 -1 160 160 160 160 161 161 161 161 162 162 162 162 -1 -1 -1 -1 -1 -1 -1 -1 -1 -1 -1 -1 163 163 163 163 -1 -1 -1 -1 164 164 164 164 165 165 165 165 -1 -1 -1 -1 -1 -1 -1 -1 166 166 166 166 167 167 167 167 -1 -1 -1 -1 -1 -1 -1 -1 -1 -1 -1 -1 -1 -1 -1 -1 -1 -1 -1 -1 -1 -1 -1 -1 -1 -1 -1 -1 -1 -1 -1 -1 -1 -1 -1 -1 -1 -1 -1 -1 -1 -1 -1 -1 -1 -1 -1 -1 -1 -1 -1 -1 -1 -1 -1 -1 -1 -1 -1 -1 -1 -1 -1 -1 -1 -1 -1 -1 -1 -1 -1 -1 -1 -1 -1 -1 -1 -1 -1 -1 168 168 168 168 169 169 169 169 -1 -1 -1 -1 170 170 170 170 171 171 171 171 172 172 172 172 173 173 173 173 -1 -1 -1 -1 -1 -1 -1 -1 174 174 174 174 175 175 175 175 176 176 176 176 -1 -1 -1 -1 -1 -1 -1 -1 -1 -1 -1 -1 -1 -1 -1 -1 -1 -1 -1 -1 -1 -1 -1 -1 -1 -1 -1 -1 -1 -1 -1 -1 -1 -1 -1 -1 -1 -1 -1 -1 -1 -1 -1 -1 -1 -1 -1 -1 177 177 177 177 178 178 178 178 179 179 179 179 -1 -1 -1 -1 180 180 180 180 -1 -1 -1 -1 -1 -1 -1 -1 -1 -1 -1 -1 -1 -1 -1 -1 -1 -1 -1 -1 -1 -1 -1 -1 181 181 181 181 182 182 182 182 183 183 183 183 184 184 184 184 185 185 185 185 186 186 186 186 -1 -1 -1 -1 -1 -1 -1 -1 -1 -1 -1 -1 -1 -1 -1 -1 187 187 187 187 188 188 188 188 -1 -1 -1 -1 189 189 189 189 -1 -1 -1 -1 -1 -1 -1 -1 -1 -1 -1 -1 190 190 190 190 191 191 191 191 192 192 192 192 193 193 193 193 -1 -1 -1 -1 -1 -1 -1 -1 -1 -1 -1 -1 -1 -1 -1 -1 194 194 194 194 195 195 195 195 196 196 196 196 197 197 197 197 -1 -1 -1 -1 -1 -1 -1 -1 -1 -1 -1 -1 -1 -1 -1 -1 -1 -1 -1 -1 -1 -1 -1 -1 -1 -1 -1 -1 -1 -1 -1 -1 -1 -1 -1 -1 -1 -1 -1 -1 -1 -1 -1 -1 -1 -1 -1 -1 -1 -1 -1 -1 -1 -1 -1 -1 -1 -1 -1 -1 -1 -1 -1 -1 -1 -1 -1 -1 -1 -1 -1 -1 -1 -1 -1 -1 -1 -1 -1 -1 -1 -1 -1 -1 -1 -1 -1 -1 -1 -1 -1 -1 -1 -1 -1 -1 -1 -1 -1 -1 -1 -1 -1 -1 -1 -1 -1 -1 -1 -1 -1 -1 -1 -1 -1 -1 -1 -1 -1 -1 -1 -1 -1 -1 -1 -1 -1 -1 -1 -1 -1 -1 198 198 198 198 199 199 199 199 200 200 200 200 201 201 201 201 202 202 202 202 203 203 203 203 204 204 204 204 205 205 205 205 -1 -1 -1 -1 -1 -1 -1 -1 -1 -1 -1 -1 -1 -1 -1 -1 206 206 206 206 207 207 207 207 208 208 208 208 209 209 209 209 210 210 210 210 211 211 211 211 212 212 212 212 213 213 213 213 -1 -1 -1 -1 -1 -1 -1 -1 -1 -1 -1 -1 -1 -1 -1 -1 -1 -1 -1 -1 -1 -1 -1 -1 -1 -1 -1 -1 -1 -1 -1 -1 214 214 214 214 -1 -1 -1 -1 -1 -1 -1 -1 -1 -1 -1 -1 -1 -1 -1 -1 -1 -1 -1 -1 -1 -1 -1 -1 -1 -1 -1 -1 215 215 215 215 216 216 216 216 -1 -1 -1 -1 -1 -1 -1 -1 -1 -1 -1 -1 -1 -1 -1 -1 -1 -1 -1 -1 -1 -1 -1 -1 -1 -1 -1 -1 -1 -1 -1 -1 217 217 217 217 218 218 218 218 -1 -1 -1 -1 -1 -1 -1 -1 -1 -1 -1 -1 -1 -1 -1 -1 -1 -1 -1 -1 -1 -1 -1 -1 219 219 219 219 220 220 220 220 -1 -1 -1 -1 -1 -1 -1 -1 221 221 221 221 222 222 222 222 223 223 223 223 224 224 224 224 -1 -1 -1 -1 -1 -1 -1 -1 225 225 225 225 226 226 226 226 227 227 227 227 228 228 228 228 -1 -1 -1 -1 -1 -1 -1 -1 229 229 229 229 230 230 230 230 231 231 231 231 232 232 232 232 -1 -1 -1 -1 233 233 233 233 234 234 234 234 235 235 235 235 236 236 236 236 237 237 237 237 -1 -1 -1 -1 -1 -1 -1 -1 238 238 238 238 239 239 239 239 240 240 240 240 241 241 241 241 -1 -1 -1 -1 -1 -1 -1 -1 -1 -1 -1 -1 -1 -1 -1 -1 -1 -1 -1 -1 -1 -1 -1 -1 -1 -1 -1 -1 -1 -1 -1 -1 -1 -1 -1 -1 -1 -1 -1 -1 -1 -1 -1 -1 -1 -1 -1 -1 -1 -1 -1 -1 -1 -1 -1 -1 -1 -1 -1 -1 -1 -1 -1 -1 -1 -1 -1 -1 -1 -1 -1 -1 -1 -1 -1 -1 -1 -1 -1 -1 -1 -1 -1 -1 -1 -1 -1 -1 -1 -1 -1 -1 -1 -1 -1 -1 -1 -1 -1 -1 -1 -1 -1 -1 -1 -1 -1 -1 -1 -1 -1 -1 -1 -1 -1 -1 -1 -1 -1 -1 -1 -1 -1 -1 -1 -1 -1 -1 -1 -1 -1 -1 -1 -1 -1 -1 -1 -1 -1 -1 242 242 242 242 243 243 243 243 244 244 244 244 245 245 245 245 246 246 246 246 247 247 247 247 248 248 248 248 249 249 249 249 -1 -1 -1 -1 -1 -1 -1 -1 -1 -1 -1 -1 -1 -1 -1 -1 250 250 250 250 251 251 251 251 252 252 252 252 253 253 253 253 254 254 254 254 255 255 255 255 -1 -1 -1 -1 -1 -1 -1 -1 -1 -1 -1 -1 -1 -1 -1 -1 -1 -1 -1 -1 -1 -1 -1 -1 -1 -1 -1 -1 -1 -1 -1 -1 -1 -1 -1 -1 -1 -1 -1 -1 -1 -1 -1 -1 -1 -1 -1 -1 -1 -1 -1 -1 256 256 256 256 -1 -1 -1 -1 -1 -1 -1 -1 -1 -1 -1 -1 -1 -1 -1 -1 257 257 257 257 258 258 258 258 -1 -1 -1 -1 -1 -1 -1 -1 -1 -1 -1 -1 -1 -1 -1 -1 -1 -1 -1 -1 -1 -1 -1 -1 -1 -1 -1 -1 259 259 259 259 -1 -1 -1 -1 -1 -1 -1 -1 260 260 260 260 261 261 261 261 262 262 262 262 263 263 263 263 -1 -1 -1 -1 -1 -1 -1 -1 264 264 264 264 265 265 265 265 266 266 266 266 267 267 267 267 268 268 268 268 269 269 269 269 -1 -1 -1 -1 -1 -1 -1 -1 270 270 270 270 271 271 271 271 -1 -1 -1 -1 -1 -1 -1 -1 272 272 272 272 273 273 273 273 274 274 274 274 275 275 275 275 276 276 276 276 277 277 277 277 -1 -1 -1 -1 -1 -1 -1 -1 -1 -1 -1 -1 -1 -1 -1 -1 -1 -1 -1 -1 -1 -1 -1 -1 -1 -1 -1 -1 -1 -1 -1 -1 -1 -1 -1 -1 -1 -1 -1 -1 -1 -1 -1 -1 -1 -1 -1 -1 -1 -1 -1 -1 -1 -1 -1 -1 -1 -1 -1 -1 -1 -1 -1 -1 -1 -1 -1 -1 278 278 278 278 279 279 279 279 280 280 280 280 281 281 281 281 -1 -1 -1 -1 -1 -1 -1 -1 -1 -1 -1 -1 -1 -1 -1 -1 282 282 282 282 283 283 283 283 284 284 284 284 285 285 285 285 286 286 286 286 287 287 287 287 -1 -1 -1 -1 -1 -1 -1 -1 -1 -1 -1 -1 -1 -1 -1 -1 -1 -1 -1 -1 -1 -1 -1 -1 -1 -1 -1 -1 -1 -1 -1 -1 -1 -1 -1 -1 -1 -1 -1 -1 -1 -1 -1 -1 -1 -1 -1 -1 -1 -1 -1 -1 288 288 288 288 -1 -1 -1 -1 -1 -1 -1 -1 -1 -1 -1 -1 289 289 289 289 290 290 290 290 291 291 291 291 292 292 292 292 -1 -1 -1 -1 -1 -1 -1 -1 -1 -1 -1 -1 -1 -1 -1 -1 -1 -1 -1 -1 -1 -1 -1 -1 293 293 293 293 294 294 294 294 295 295 295 295 296 296 296 296 297 297 297 297 -1 -1 -1 -1 -1 -1 -1 -1 298 298 298 298 299 299 299 299 -1 -1 -1 -1 -1 -1 -1 -1 300 300 300 300 301 301 301 301 -1 -1 -1 -1 -1 -1 -1 -1 -1 -1 -1 -1 -1 -1 -1 -1 -1 -1 -1 -1 -1 -1 -1 -1 -1 -1 -1 -1 -1 -1 -1 -1 -1 -1 -1 -1 -1 -1 -1 -1 -1 -1 -1 -1 -1 -1 -1 -1 -1 -1 -1 -1 -1 -1 -1 -1 -1 -1 -1 -1 -1 -1 -1 -1 -1 -1 -1 -1 -1 -1 -1 -1 302 302 302 302 303 303 303 303 304 304 304 304 305 305 305 305 306 306 306 306 307 307 307 307 308 308 308 308 309 309 309 309 -1 -1 -1 -1 -1 -1 -1 -1 -1 -1 -1 -1 -1 -1 -1 -1 310 310 310 310 311 311 311 311 312 312 312 312 313 313 313 313 314 314 314 314 315 315 315 315 316 316 316 316 -1 -1 -1 -1 -1 -1 -1 -1 317 317 317 317 -1 -1 -1 -1 -1 -1 -1 -1 318 318 318 318 319 319 319 319 -1 -1 -1 -1 -1 -1 -1 -1 -1 -1 -1 -1 -1 -1 -1 -1 320 320 320 320 321 321 321 321 -1 -1 -1 -1 -1 -1 -1 -1 322 322 322 322 323 323 323 323 -1 -1 -1 -1 -1 -1 -1 -1 324 324 324 324 325 325 325 325 -1 -1 -1 -1 -1 -1 -1 -1 -1 -1 -1 -1 -1 -1 -1 -1 326 326 326 326 327 327 327 327 328 328 328 328 329 329 329 329 330 330 330 330 331 331 331 331 -1 -1 -1 -1 332 332 332 332 333 333 333 333 -1 -1 -1 -1 334 334 334 334 -1 -1 -1 -1 -1 -1 -1 -1 -1 -1 -1 -1 335 335 335 335 336 336 336 336 -1 -1 -1 -1 -1 -1 -1 -1 -1 -1 -1 -1 -1 -1 -1 -1 -1 -1 -1 -1 -1 -1 -1 -1 -1 -1 -1 -1 -1 -1 -1 -1 337 337 337 337 338 338 338 338 339 339 339 339 340 340 340 340 -1 -1 -1 -1 341 341 341 341 342 342 342 342 -1 -1 -1 -1 -1 -1 -1 -1 -1 -1 -1 -1 -1 -1 -1 -1 -1 -1 -1 -1 343 343 343 343 344 344 344 344 345 345 345 345 346 346 346 346 -1 -1 -1 -1 -1 -1 -1 -1 -1 -1 -1 -1 -1 -1 -1 -1 347 347 347 347 348 348 348 348 349 349 349 349 350 350 350 350 -1 -1 -1 -1 -1 -1 -1 -1 351 351 351 351 352 352 352 352 353 353 353 353 354 354 354 354 -1 -1 -1 -1 -1 -1 -1 -1 -1 -1 -1 -1 355 355 355 355 356 356 356 356 357 357 357 357 358 358 358 358 -1 -1 -1 -1 -1 -1 -1 -1 359 359 359 359 360 360 360 360 -1 -1 -1 -1 -1 -1 -1 -1 361 361 361 361 -1 -1 -1 -1 362 362 362 362 363 363 363 363 364 364 364 364 -1 -1 -1 -1 365 365 365 365 -1 -1 -1 -1 366 366 366 366 367 367 367 367 -1 -1 -1 -1 -1 -1 -1 -1 -1 -1 -1 -1 368 368 368 368 369 369 369 369 -1 -1 -1 -1 -1 -1 -1 -1 -1 -1 -1 -1 370 370 370 370 371 371 371 371 372 372 372 372 -1 -1 -1 -1 -1 -1 -1 -1 -1 -1 -1 -1 373 373 373 373 374 374 374 374 -1 -1 -1 -1 -1 -1 -1 -1 -1 -1 -1 -1 -1 -1 -1 -1 -1 -1 -1 -1 375 375 375 375 376 376 376 376 377 377 377 377 378 378 378 378 -1 -1 -1 -1 -1 -1 -1 -1 -1 -1 -1 -1 -1 -1 -1 -1 -1 -1 -1 -1 -1 -1 -1 -1 -1 -1 -1 -1 -1 -1 -1 -1 -1 -1 -1 -1 -1 -1 -1 -1 379 379 379 379 380 380 380 380 -1 -1 -1 -1 -1 -1 -1 -1 -1 -1 -1 -1 -1 -1 -1 -1 381 381 381 381 382 382 382 382 383 383 383 383 384 384 384 384 -1 -1 -1 -1 -1 -1 -1 -1 -1 -1 -1 -1 -1 -1 -1 -1 385 385 385 385 386 386 386 386 -1 -1 -1 -1 -1 -1 -1 -1 -1 -1 -1 -1 -1 -1 -1 -1 387 387 387 387 388 388 388 388 -1 -1 -1 -1 -1 -1 -1 -1 389 389 389 389 390 390 390 390 -1 -1 -1 -1 -1 -1 -1 -1 -1 -1 -1 -1 -1 -1 -1 -1 391 391 391 391 392 392 392 392 393 393 393 393 394 394 394 394 395 395 395 395 396 396 396 396 397 397 397 397 398 398 398 398 -1 -1 -1 -1 399 399 399 399 -1 -1 -1 -1 -1 -1 -1 -1 -1 -1 -1 -1 -1 -1 -1 -1 400 400 400 400 401 401 401 401 -1 -1 -1 -1 -1 -1 -1 -1 402 402 402 402 403 403 403 403 -1 -1 -1 -1 -1 -1 -1 -1 404 404 404 404 405 405 405 405 -1 -1 -1 -1 -1 -1 -1 -1 -1 -1 -1 -1 406 406 406 406 407 407 407 407 408 408 408 408 -1 -1 -1 -1 -1 -1 -1 -1 -1 -1 -1 -1 -1 -1 -1 -1 409 409 409 409 410 410 410 410 -1 -1 -1 -1 -1 -1 -1 -1 -1 -1 -1 -1 -1 -1 -1 -1 -1 -1 -1 -1 -1 -1 -1 -1 411 411 411 411 412 412 412 412 413 413 413 413 414 414 414 414 415 415 415 415 416 416 416 416 -1 -1 -1 -1 -1 -1 -1 -1 -1 -1 -1 -1 -1 -1 -1 -1 417 417 417 417 418 418 418 418 -1 -1 -1 -1 -1 -1 -1 -1 -1 -1 -1 -1 -1 -1 -1 -1 419 419 419 419 -1 -1 -1 -1 420 420 420 420 -1 -1 -1 -1 421 421 421 421 -1 -1 -1 -1 -1 -1 -1 -1 -1 -1 -1 -1 422 422 422 422 423 423 423 423 -1 -1 -1 -1 -1 -1 -1 -1 -1 -1 -1 -1 -1 -1 -1 -1 -1 -1 -1 -1 -1 -1 -1 -1 424 424 424 424 425 425 425 425 426 426 426 426 427 427 427 427 -1 -1 -1 -1 -1 -1 -1 -1 -1 -1 -1 -1 -1 -1 -1 -1 -1 -1 -1 -1 -1 -1 -1 -1 428 428 428 428 429 429 429 429 -1 -1 -1 -1 430 430 430 430 -1 -1 -1 -1 -1 -1 -1 -1 -1 -1 -1 -1 -1 -1 -1 -1 -1 -1 -1 -1 -1 -1 -1 -1 -1 -1 -1 -1 -1 -1 -1 -1 -1 -1 -1 -1 -1 -1 -1 -1 431 431 431 431 -1 -1 -1 -1 432 432 432 432 -1 -1 -1 -1 -1 -1 -1 -1 -1 -1 -1 -1 -1 -1 -1 -1 -1 -1 -1 -1 -1 -1 -1 -1 -1 -1 -1 -1 -1 -1 -1 -1 -1 -1 -1 -1 -1 -1 -1 -1 433 433 433 433 434 434 434 434 435 435 435 435 436 436 436 436 -1 -1 -1 -1 -1 -1 -1 -1 -1 -1 -1 -1 -1 -1 -1 -1 -1 -1 -1 -1 -1 -1 -1 -1 -1 -1 -1 -1 -1 -1 -1 -1 -1 -1 -1 -1 -1 -1 -1 -1 -1 -1 -1 -1 -1 -1 -1 -1 437 437 437 437 438 438 438 438 439 439 439 439 440 440 440 440 -1 -1 -1 -1 -1 -1 -1 -1 -1 -1 -1 -1 -1 -1 -1 -1 -1 -1 -1 -1 -1 -1 -1 -1 441 441 441 441 442 442 442 442 443 443 443 443 444 444 444 444 -1 -1 -1 -1 -1 -1 -1 -1 -1 -1 -1 -1 -1 -1 -1 -1 445 445 445 445 446 446 446 446 -1 -1 -1 -1 -1 -1 -1 -1 -1 -1 -1 -1 -1 -1 -1 -1 -1 -1 -1 -1 -1 -1 -1 -1 -1 -1 -1 -1 -1 -1 -1 -1 447 447 447 447 -1 -1 -1 -1 448 448 448 448 449 449 449 449 450 450 450 450 451 451 451 451 452 452 452 452 453 453 453 453 454 454 454 454 455 455 455 455 456 456 456 456 457 457 457 457 458 458 458 458 459 459 459 459 460 460 460 460 461 461 461 461 462 462 462 462 463 463 463 463 -1 -1 -1 -1 -1 -1 -1 -1 -1 -1 -1 -1 -1 -1 -1 -1 -1 -1 -1 -1 -1 -1 -1 -1 -1 -1 -1 -1 464 464 464 464 465 465 465 465 -1 -1 -1 -1 -1 -1 -1 -1 -1 -1 -1 -1 -1 -1 -1 -1 -1 -1 -1 -1 -1 -1 -1 -1 -1 -1 -1 -1 -1 -1 -1 -1 -1 -1 -1 -1 466 466 466 466 467 467 467 467 -1 -1 -1 -1 -1 -1 -1 -1 -1 -1 -1 -1 -1 -1 -1 -1 -1 -1 -1 -1 -1 -1 -1 -1 -1 -1 -1 -1 -1 -1 -1 -1 -1 -1 -1 -1 -1 -1 -1 -1 -1 -1 -1 -1 -1 -1 -1 -1 -1 -1 -1 -1 -1 -1 -1 -1 -1 -1 -1 -1 468 468 468 468 469 469 469 469 470 470 470 470 471 471 471 471 472 472 472 472 473 473 473 473 474 474 474 474 -1 -1 -1 -1 475 475 475 475 -1 -1 -1 -1 476 476 476 476 477 477 477 477 478 478 478 478 479 479 479 479 480 480 480 480 481 481 481 481 482 482 482 482 -1 -1 -1 -1 -1 -1 -1 -1 483 483 483 483 484 484 484 484 -1 -1 -1 -1 -1 -1 -1 -1 485 485 485 485 486 486 486 486 487 487 487 487 488 488 488 488 489 489 489 489 490 490 490 490 491 491 491 491 492 492 492 492 493 493 493 493 494 494 494 494 495 495 495 495 496 496 496 496 -1 -1 -1 -1 497 497 497 497 -1 -1 -1 -1 -1 -1 -1 -1 -1 -1 -1 -1 -1 -1 -1 -1 498 498 498 498 499 499 499 499 500 500 500 500 501 501 501 501 502 502 502 502 503 503 503 503 504 504 504 504 505 505 505 505 506 506 506 506 507 507 507 507 508 508 508 508 509 509 509 509 510 510 510 510 511 511 511 511 -1 -1 -1 -1 -1 -1 -1 -1 -1 -1 -1 -1 -1 -1 -1 -1 512 512 512 512 513 513 513 513 514 514 514 514 515 515 515 515 516 516 516 516 517 517 517 517 518 518 518 518 519 519 519 519 520 520 520 520 521 521 521 521 522 522 522 522 523 523 523 523 524 524 524 524 525 525 525 525 526 526 526 526 527 527 527 527 528 528 528 528 -1 -1 -1 -1 529 529 529 529 -1 -1 -1 -1 -1 -1 -1 -1 -1 -1 -1 -1 530 530 530 530 531 531 531 531 532 532 532 532 533 533 533 533 -1 -1 -1 -1 534 534 534 534 -1 -1 -1 -1 -1 -1 -1 -1 -1 -1 -1 -1 -1 -1 -1 -1 -1 -1 -1 -1 535 535 535 535 536 536 536 536 -1 -1 -1 -1 -1 -1 -1 -1 -1 -1 -1 -1 -1 -1 -1 -1 537 537 537 537 538 538 538 538 539 539 539 539 540 540 540 540 541 541 541 541 542 542 542 542 543 543 543 543 544 544 544 544 545 545 545 545 546 546 546 546 547 547 547 547 548 548 548 548 549 549 549 549 550 550 550 550 551 551 551 551 552 552 552 552 553 553 553 553 554 554 554 554 555 555 555 555 556 556 556 556 557 557 557 557 558 558 558 558 559 559 559 559 560 560 560 560 561 561 561 561 562 562 562 562 -1 -1 -1 -1 -1 -1 -1 -1 563 563 563 563 564 564 564 564 565 565 565 565 566 566 566 566 567 567 567 567 568 568 568 568 569 569 569 569 570 570 570 570 571 571 571 571 572 572 572 572 573 573 573 573 574 574 574 574 575 575 575 575 576 576 576 576 577 577 577 577 578 578 578 578 579 579 579 579 580 580 580 580 581 581 581 581 582 582 582 582 583 583 583 583 584 584 584 584 585 585 585 585 586 586 586 586 587 587 587 587 588 588 588 588 589 589 589 589 590 590 590 590 591 591 591 591 592 592 592 592 593 593 593 593 594 594 594 594 595 595 595 595 596 596 596 596 597 597 597 597 598 598 598 598 599 599 599 599 600 600 600 600 601 601 601 601 602 602 602 602 603 603 603 603 604 604 604 604 605 605 605 605 606 606 606 606 607 607 607 607 608 608 608 608 609 609 609 609 610 610 610 610 611 611 611 611 612 612 612 612 613 613 613 613 614 614 614 614 615 615 615 615 616 616 616 616 617 617 617 617 618 618 618 618 619 619 619 619 620 620 620 620 621 621 621 621 622 622 622 622 623 623 623 623 -1 -1 -1 -1 -1 -1 -1 -1 -1 -1 -1 -1 -1 -1 -1 -1 -1 -1 -1 -1 -1 -1 -1 -1 -1 -1 -1 -1 -1 -1 -1 -1 -1 -1 -1 -1 -1 -1 -1 -1 -1 -1 -1 -1 -1 -1 -1 -1 -1 -1 -1 -1 -1 -1 -1 -1 624 624 624 624 625 625 625 625 -1 -1 -1 -1 626 626 626 626 -1 -1 -1 -1 627 627 627 627 628 628 628 628 -1 -1 -1 -1 629 629 629 629 -1 -1 -1 -1 630 630 630 630 631 631 631 631 632 632 632 632 633 633 633 633 -1 -1 -1 -1 -1 -1 -1 -1 -1 -1 -1 -1 634 634 634 634 635 635 635 635 636 636 636 636 637 637 637 637 638 638 638 638 639 639 639 639 640 640 640 640 641 641 641 641 -1 -1 -1 -1 -1 -1 -1 -1 642 642 642 642 643 643 643 643 -1 -1 -1 -1 -1 -1 -1 -1 644 644 644 644 645 645 645 645 -1 -1 -1 -1 -1 -1 -1 -1 -1 -1 -1 -1 -1 -1 -1 -1 -1 -1 -1 -1 -1 -1 -1 -1 -1 -1 -1 -1 -1 -1 -1 -1 -1 -1 -1 -1 -1 -1 -1 -1 -1 -1 -1 -1 -1 -1 -1 -1 -1 -1 -1 -1 -1 -1 -1 -1 -1 -1 -1 -1 -1 -1 -1 -1 -1 -1 -1 -1 -1 -1 -1 -1 -1 -1 -1 -1 -1 -1 -1 -1 -1 -1 -1 -1 -1 -1 -1 -1 -1 -1 -1 -1 -1 -1 -1 -1 -1 -1 -1 -1 -1 -1 -1 -1 -1 -1 -1 -1 -1 -1 -1 -1 -1 -1 -1 -1 -1 -1 -1 -1 -1 -1 -1 -1 -1 -1 -1 -1 -1 -1 -1 -1 -1 -1 -1 -1 -1 -1 -1 -1 -1 -1 -1 -1 -1 -1 -1 -1 -1 -1 -1 -1 -1 -1 -1 -1 -1 -1 -1 -1 -1 -1 -1 -1 
