# vtk DataFile Version 3.0
d-2__ created by libgimli-v1.5.0-1-g5991b6ac
ASCII
DATASET UNSTRUCTURED_GRID
POINTS 2043 double
-3.9319679543248	17.515	0
-3.9319679543248	-19.618685848	0
96.766182574325	-19.618685848	0
96.766182574325	19.012	0
-375.26882643432	17.515	0
-375.26882643432	-390.955544328	0
468.10304105432	19.012	0
468.10304105432	-389.458544328	0
0	17.515	0
0.9625346745	17.7145	0
1.925069349	17.914	0
2.8876957065	18.171	0
3.850322064	18.428	0
4.794986201	18.753	0
5.739650338	19.078	0
6.685735316	19.2365	0
7.631820294	19.395	0
8.6549538795	19.541	0
9.678087465	19.687	0
10.6517945425	19.8455	0
11.62550162	20.004	0
12.621570165	20.132	0
13.61763871	20.26	0
14.60381366	20.2745	0
15.58998861	20.289	0
16.56139512	20.3545	0
17.53280163	20.42	0
18.53274441	20.402	0
19.53268719	20.384	0
20.534100755	20.3185	0
21.53551432	20.253	0
22.55774046	20.2555	0
23.5799666	20.258	0
24.549285355	20.307	0
25.51860411	20.356	0
26.520864075	20.368	0
27.52312404	20.38	0
28.48739107	20.389	0
29.4516581	20.398	0
30.460293905	20.409	0
31.46892971	20.42	0
32.46725635	20.3845	0
33.46558299	20.349	0
34.465009075	20.351	0
35.46443516	20.353	0
36.463544415	20.315	0
37.46265367	20.277	0
38.462071385	20.2255	0
39.4614891	20.174	0
40.406230385	20.139	0
41.35097167	20.104	0
42.40444587	20.0905	0
43.45792007	20.077	0
44.45014712	20.0815	0
45.44237417	20.086	0
46.43319799	20.11	0
47.42402181	20.134	0
48.44155053	20.195	0
49.45907925	20.256	0
50.425047565	20.2675	0
51.39101588	20.279	0
52.36732183	20.2665	0
53.34362778	20.254	0
54.344502975	20.2245	0
55.34537817	20.195	0
56.33855109	20.23	0
57.33172401	20.265	0
58.34665509	20.2895	0
59.36158617	20.314	0
60.338902165	20.436	0
61.31621816	20.558	0
62.31133827	20.5755	0
63.30645838	20.593	0
64.30083833	20.6375	0
65.29521828	20.682	0
66.28876109	20.644	0
67.2823039	20.606	0
68.28038061	20.617	0
69.27845732	20.628	0
70.28140992	20.6245	0
71.28436252	20.621	0
72.29803979	20.5965	0
73.31171706	20.572	0
74.292783405	20.569	0
75.27384975	20.566	0
76.25455158	20.4625	0
77.23525341	20.359	0
78.231074735	20.23	0
79.22689606	20.101	0
80.206627185	19.925	0
81.18635831	19.749	0
82.172663435	19.589	0
83.15896856	19.429	0
84.109298315	19.2805	0
85.05962807	19.132	0
86.04119154	19.0785	0
87.02275501	19.025	0
88.000265525	18.9515	0
88.97777604	18.878	0
89.91700872	18.915	0
90.8562414	18.952	0
91.84522801	18.982	0
92.83421462	19.012	0
0.67673581107423	16.774066427205	0
7.0080385742047	17.495424109968	0
45.826319088285	18.01754857583	0
14.235135267701	19.079685573994	0
25.357642485485	18.708231640543	0
79.200709411619	18.401144253302	0
51.097636651823	19.478329036729	0
88.37446860003	17.492187180005	0
65.936492473216	19.344908416949	0
2.7078584306306	16.660171911468	0
1.4943050327041	16.892541111584	0
7.947307919699	18.329566299548	0
5.780285108407	18.140853144434	0
37.942543203958	19.413009337954	0
37.453520081205	18.382394651473	0
53.891105803303	19.387350113127	0
16.963224044395	19.18013888518	0
15.208393721192	19.604643624002	0
11.168266934051	18.835124499527	0
24.004183510646	19.228873938609	0
33.265627391067	18.754742662697	0
28.030912604446	19.160113774974	0
76.657850649901	19.0488806101	0
83.575509881651	18.338914221711	0
80.617383707762	18.768998931229	0
60.104175964207	19.221047639164	0
56.967963078747	19.453896094112	0
88.563008721264	13.924499599732	0
89.642394388108	17.958442739244	0
87.35976435913	18.223332125968	0
66.884655520153	19.830248459207	0
64.787457411308	19.725990608279	0
3.6880391144619	17.430995748641	0
4.6971850908332	17.617437015298	0
62.863366906411	17.358646412588	0
56.253290713931	17.589357644787	0
49.061545019734	19.114524385229	0
45.926973526448	19.215661634995	0
15.988711832302	19.635070411211	0
10.203032911977	19.150977772222	0
31.748344856175	19.18763903228	0
40.866051070271	19.16787445941	0
34.222265117654	19.444105747081	0
29.047497291759	19.618177021184	0
75.189485218529	19.529143405569	0
85.584969068303	17.952863996879	0
84.53378236344	18.38091557672	0
82.650554022528	18.602991180757	0
61.787044856193	19.181100160164	0
96.766182574325	3.012	0
86.568732852455	18.321766157446	0
67.789556380709	19.667726587792	0
63.83932134873	19.64846948843	0
5.7764776777889	16.678284075024	0
44.496918667839	17.728409426979	0
52.862950519574	19.024309499391	0
36.897136169605	19.425667081112	0
35.159885583919	19.439451435896	0
73.624280626844	19.119861762787	0
81.683193861771	18.515732258403	0
60.886628873928	19.848047995328	0
90.453084175828	18.218890088169	0
86.842872261539	17.334824679503	0
68.821251671568	19.664678435736	0
62.886940594845	19.768012239313	0
45.722833249599	15.872644025627	0
42.918019804863	19.047877227427	0
43.376042795343	18.03883992739	0
96.766182574325	11.012	0
69.791070978145	19.76296321549	0
68.328158762417	18.413221830557	0
70.716562350281	19.744400573605	0
69.422632598702	18.93816568411	0
58.726754293189	18.069153347928	0
13.089565528117	19.34843374105	0
26.246488979363	19.574826309033	0
78.444869689897	19.408012005945	0
57.916132724731	19.324089353139	0
-3.9319679543248	1.515	0
8.5674227469088	18.863684464988	0
8.6001049569398	16.907905357837	0
9.4036763407757	18.962060020559	0
19.853328537025	19.196630573277	0
18.077911474071	19.482761428909	0
14.767415106294	17.324986994193	0
22.963605883215	19.20842397136	0
36.006813839798	19.616292734662	0
56.02274291922	19.030156658025	0
46.41710731	-19.618685848	0
54.089328933167	18.24292123907	0
30.843059487283	19.620478460075	0
29.950664129027	19.533816280525	0
31.847334268674	17.385887201954	0
84.346537351274	17.198451287971	0
64.557706490011	18.343807712174	0
4.3179491317763	16.2901549433	0
51.85875068005	19.481474279453	0
75.007622400921	17.402509958138	0
72.626262752485	19.737939987744	0
80.809186598907	17.236186933972	0
57.519200476754	17.187420149349	0
38.716546268732	17.150652021103	0
45.017322762945	19.023585050736	0
67.11117857894	18.913151508425	0
71.692732918074	19.696307458469	0
71.019406249687	18.779144122809	0
70.185066624119	19.014321556868	0
69.947545863995	17.866972315467	0
43.953479210751	19.000535217692	0
12.246093990105	19.265619738287	0
12.722169752934	18.019084124915	0
26.607184017146	17.629427344907	0
27.025821407612	19.654152843557	0
77.688539766352	19.558373737137	0
77.326142323126	17.26439926746	0
57.234256117598	18.441121004981	0
58.891014997065	19.442650774806	0
10.612894944416	17.15688691858	0
9.2074264512109	18.107792334993	0
21.098330636324	19.23986840676	0
18.448838343744	17.934013858973	0
18.890123533102	19.47981228261	0
15.609750508317	18.752039397977	0
22.038383527719	19.467123051887	0
23.545408745018	17.660069466541	0
39.691702495677	18.920097102481	0
34.323809347646	16.183477661612	0
36.036645403707	18.541954865979	0
30.581412134729	18.544549245641	0
29.770790558086	16.922653356599	0
63.18736224312	18.858012641707	0
82.666930491196	17.129699021799	0
64.663540310768	16.183956082582	0
48.286755603161	13.004290230828	0
48.762117934159	17.291144238114	0
66.600961240508	17.330347651778	0
72.174336254597	18.718464925966	0
46.844007469222	17.371519862568	0
26.802997091013	18.78704326229	0
27.54112148747	17.992704329957	0
50.240824131131	19.002861154637	0
28.486226043295	17.84458518671	0
77.864667845511	18.737288123247	0
35.418141751984	17.530111021907	0
10.118660569689	18.44119771626	0
16.47900980991	17.694519678244	0
22.019392015662	18.377453063126	0
41.83729108267	19.016209817425	0
55.205199393543	18.121405192012	0
54.816319968294	19.199799518196	0
29.311826150431	18.604441099437	0
51.575420056835	18.358754631403	0
16.584250334202	15.289052066165	0
20.571395138665	17.824272299203	0
42.44226047452	18.024853862324	0
49.875067218353	16.148543585324	0
46.909626540357	18.824649344424	0
21.859285137872	16.86217280104	0
51.502338453343	16.706960508376	0
31.337994607418	14.68565994175	0
92.285679708499	18.008988003325	0
-1.9659839771624	17.515	0
-3.9319679543248	9.515	0
7.3002091681801	15.724748339945	0
85.729479979017	16.229941382986	0
70.753352082922	15.70295057054	0
52.912329593137	17.182761279238	0
38.819547522301	19.481900694808	0
20.104534377482	15.333544650282	0
23.006651060977	15.111416759032	0
91.316076549132	17.982629511228	0
81.606378031576	14.847786015836	0
71.327403165838	17.675015024415	0
47.892207206734	16.259028934083	0
49.522615392253	17.907315573663	0
94.800198597162	19.012	0
73.375248009992	15.270344160934	0
67.038681013283	13.562224639918	0
72.712644059724	17.314697068925	0
52.583412004643	14.20486169157	0
56.690143341406	16.248046801349	0
38.526566980659	18.670519455017	0
3.4737161512817	14.542038690511	0
9.5498138938744	14.683902834572	0
5.5935739642402	14.835501667515	0
27.756799181058	16.53260215913	0
84.016086978826	15.148250100041	0
28.892624952576	11.611278388306	0
47.852897173088	17.845139603988	0
100.58989434421	15.338954255509	0
7.304800266439	13.792268740278	0
90.543595062405	17.301023026719	0
89.605087674185	16.969073854757	0
90.34558643894	16.257265703808	0
90.547362066343	14.736011813676	0
89.146534771826	15.860846893299	0
87.465955918688	15.797781897235	0
91.928016381108	16.449848990851	0
90.515064588099	12.173765050271	0
79.088823380088	15.718504746234	0
68.536370401117	16.573487261407	0
58.680066551649	15.623749903152	0
25.189333410679	12.777650951117	0
36.535672416603	17.056358229136	0
12.931250183263	15.147620542011	0
-3.9319679543248	13.515	0
50.543577907729	17.625691964819	0
1.2091136567172	15.40578141184	0
27.286724391459	14.375982727807	0
5.4140882457517	12.017443656304	0
93.520931800849	17.634473898052	0
96.766182574325	15.012	0
96.766182574325	17.012	0
95.246160030435	17.417744653073	0
94.043173723606	15.91513363623	0
95.592210743799	15.928909324339	0
95.148773726465	14.292646420634	0
92.851578930441	13.781462170541	0
96.766182574325	13.012	0
86.165505273192	13.948675879916	0
76.119164500602	14.24234274511	0
54.840112925098	16.555684227954	0
48.65114031967	18.245703134283	0
48.056801906229	19.060485172529	0
8.6853605589377	11.732992908854	0
224.76618257432	19.012	0
94.901064640559	12.117139210517	0
83.61893946033	11.524066223853	0
[...]
CELL_DATA 3816
SCALARS Marker double 1
LOOKUP_TABLE default
-1 -1 -1 -1 0 0 0 0 -1 -1 -1 -1 1 1 1 1 2 2 2 2 3 3 3 3 4 4 4 4 5 5 5 5 6 6 6 6 7 7 7 7 8 8 8 8 9 9 9 9 10 10 10 10 11 11 11 11 12 12 12 12 13 13 13 13 14 14 14 14 15 15 15 15 16 16 16 16 -1 -1 -1 -1 17 17 17 17 18 18 18 18 19 19 19 19 20 20 20 20 21 21 21 21 22 22 22 22 23 23 23 23 24 24 24 24 25 25 25 25 26 26 26 26 27 27 27 27 28 28 28 28 29 29 29 29 30 30 30 30 31 31 31 31 32 32 32 32 33 33 33 33 34 34 34 34 35 35 35 35 36 36 36 36 37 37 37 37 38 38 38 38 39 39 39 39 40 40 40 40 41 41 41 41 42 42 42 42 -1 -1 -1 -1 43 43 43 43 44 44 44 44 45 45 45 45 46 46 46 46 47 47 47 47 48 48 48 48 49 49 49 49 50 50 50 50 51 51 51 51 52 52 52 52 53 53 53 53 54 54 54 54 55 55 55 55 56 56 56 56 57 57 57 57 58 58 58 58 59 59 59 59 60 60 60 60 61 61 61 61 62 62 62 62 63 63 63 63 64 64 64 64 65 65 65 65 66 66 66 66 67 67 67 67 68 68 68 68 69 69 69 69 70 70 70 70 71 71 71 71 72 72 72 72 73 73 73 73 74 74 74 74 75 75 75 75 76 76 76 76 77 77 77 77 78 78 78 78 79 79 79 79 80 80 80 80 81 81 81 81 82 82 82 82 83 83 83 83 84 84 84 84 85 85 85 85 86 86 86 86 87 87 87 87 88 88 88 88 89 89 89 89 90 90 90 90 91 91 91 91 92 92 92 92 93 93 93 93 94 94 94 94 95 95 95 95 96 96 96 96 97 97 97 97 98 98 98 98 99 99 99 99 100 100 100 100 101 101 101 101 102 102 102 102 103 103 103 103 104 104 104 104 105 105 105 105 106 106 106 106 107 107 107 107 108 108 108 108 109 109 109 109 110 110 110 110 111 111 111 111 112 112 112 112 113 113 113 113 114 114 114 114 115 115 115 115 116 116 116 116 117 117 117 117 118 118 118 118 119 119 119 119 120 120 120 120 121 121 121 121 122 122 122 122 123 123 123 123 -1 -1 -1 -1 124 124 124 124 125 125 125 125 -1 -1 -1 -1 126 126 126 126 127 127 127 127 128 128 128 128 129 129 129 129 130 130 130 130 131 131 131 131 132 132 132 132 133 133 133 133 134 134 134 134 135 135 135 135 -1 -1 -1 -1 136 136 136 136 137 137 137 137 138 138 138 138 139 139 139 139 140 140 140 140 -1 -1 -1 -1 141 141 141 141 142 142 142 142 143 143 143 143 144 144 144 144 145 145 145 145 146 146 146 146 -1 -1 -1 -1 147 147 147 147 148 148 148 148 149 149 149 149 150 150 150 150 151 151 151 151 152 152 152 152 153 153 153 153 154 154 154 154 155 155 155 155 156 156 156 156 157 157 157 157 158 158 158 158 159 159 159 159 160 160 160 160 161 161 161 161 162 162 162 162 163 163 163 163 164 164 164 164 165 165 165 165 166 166 166 166 167 167 167 167 168 168 168 168 169 169 169 169 170 170 170 170 171 171 171 171 172 172 172 172 173 173 173 173 174 174 174 174 175 175 175 175 176 176 176 176 177 177 177 177 178 178 178 178 179 179 179 179 180 180 180 180 181 181 181 181 182 182 182 182 183 183 183 183 184 184 184 184 185 185 185 185 186 186 186 186 187 187 187 187 188 188 188 188 189 189 189 189 190 190 190 190 191 191 191 191 192 192 192 192 193 193 193 193 194 194 194 194 195 195 195 195 196 196 196 196 197 197 197 197 198 198 198 198 199 199 199 199 200 200 200 200 201 201 201 201 202 202 202 202 203 203 203 203 204 204 204 204 205 205 205 205 206 206 206 206 207 207 207 207 208 208 208 208 209 209 209 209 210 210 210 210 211 211 211 211 212 212 212 212 213 213 213 213 214 214 214 214 215 215 215 215 216 216 216 216 217 217 217 217 218 218 218 218 219 219 219 219 220 220 220 220 221 221 221 221 222 222 222 222 223 223 223 223 224 224 224 224 225 225 225 225 226 226 226 226 227 227 227 227 228 228 228 228 229 229 229 229 230 230 230 230 231 231 231 231 232 232 232 232 233 233 233 233 234 234 234 234 235 235 235 235 236 236 236 236 237 237 237 237 238 238 238 238 239 239 239 239 240 240 240 240 241 241 241 241 242 242 242 242 243 243 243 243 244 244 244 244 245 245 245 245 246 246 246 246 247 247 247 247 248 248 248 248 249 249 249 249 250 250 250 250 251 251 251 251 252 252 252 252 253 253 253 253 254 254 254 254 255 255 255 255 256 256 256 256 257 257 257 257 258 258 258 258 259 259 259 259 260 260 260 260 261 261 261 261 262 262 262 262 263 263 263 263 264 264 264 264 265 265 265 265 266 266 266 266 267 267 267 267 268 268 268 268 269 269 269 269 270 270 270 270 271 271 271 271 272 272 272 272 273 273 273 273 274 274 274 274 275 275 275 275 276 276 276 276 277 277 277 277 278 278 278 278 279 279 279 279 280 280 280 280 281 281 281 281 282 282 282 282 283 283 283 283 284 284 284 284 285 285 285 285 286 286 286 286 287 287 287 287 288 288 288 288 289 289 289 289 290 290 290 290 291 291 291 291 292 292 292 292 293 293 293 293 294 294 294 294 295 295 295 295 296 296 296 296 297 297 297 297 298 298 298 298 299 299 299 299 300 300 300 300 301 301 301 301 302 302 302 302 303 303 303 303 304 304 304 304 305 305 305 305 306 306 306 306 307 307 307 307 308 308 308 308 309 309 309 309 310 310 310 310 311 311 311 311 312 312 312 312 313 313 313 313 314 314 314 314 315 315 315 315 316 316 316 316 317 317 317 317 318 318 318 318 319 319 319 319 320 320 320 320 321 321 321 321 322 322 322 322 323 323 323 323 324 324 324 324 325 325 325 325 326 326 326 326 327 327 327 327 328 328 328 328 329 329 329 329 330 330 330 330 331 331 331 331 332 332 332 332 333 333 333 333 334 334 334 334 335 335 335 335 336 336 336 336 337 337 337 337 338 338 338 338 339 339 339 339 340 340 340 340 341 341 341 341 342 342 342 342 343 343 343 343 344 344 344 344 345 345 345 345 346 346 346 346 347 347 347 347 348 348 348 348 349 349 349 349 350 350 350 350 351 351 351 351 352 352 352 352 353 353 353 353 354 354 354 354 355 355 355 355 356 356 356 356 357 357 357 357 358 358 358 358 359 359 359 359 360 360 360 360 361 361 361 361 362 362 362 362 363 363 363 363 364 364 364 364 365 365 365 365 366 366 366 366 367 367 367 367 368 368 368 368 369 369 369 369 370 370 370 370 371 371 371 371 372 372 372 372 373 373 373 373 374 374 374 374 375 375 375 375 376 376 376 376 377 377 377 377 378 378 378 378 379 379 379 379 380 380 380 380 381 381 381 381 382 382 382 382 383 383 383 383 384 384 384 384 385 385 385 385 386 386 386 386 387 387 387 387 388 388 388 388 389 389 389 389 390 390 390 390 391 391 391 391 392 392 392 392 393 393 393 393 394 394 394 394 395 395 395 395 396 396 396 396 397 397 397 397 398 398 398 398 399 399 399 399 400 400 400 400 401 401 401 401 402 402 402 402 403 403 403 403 404 404 404 404 405 405 405 405 406 406 406 406 407 407 407 407 408 408 408 408 409 409 409 409 410 410 410 410 411 411 411 411 412 412 412 412 413 413 413 413 414 414 414 414 415 415 415 415 416 416 416 416 417 417 417 417 -1 -1 -1 -1 418 418 418 418 419 419 419 419 420 420 420 420 421 421 421 421 422 422 422 422 423 423 423 423 424 424 424 424 425 425 425 425 426 426 426 426 427 427 427 427 428 428 428 428 429 429 429 429 430 430 430 430 431 431 431 431 432 432 432 432 433 433 433 433 434 434 434 434 435 435 435 435 436 436 436 436 437 437 437 437 438 438 438 438 439 439 439 439 440 440 440 440 441 441 441 441 442 442 442 442 443 443 443 443 444 444 444 444 445 445 445 445 446 446 446 446 447 447 447 447 448 448 448 448 449 449 449 449 450 450 450 450 451 451 451 451 452 452 452 452 453 453 453 453 454 454 454 454 455 455 455 455 456 456 456 456 457 457 457 457 458 458 458 458 459 459 459 459 460 460 460 460 461 461 461 461 462 462 462 462 463 463 463 463 464 464 464 464 465 465 465 465 466 466 466 466 467 467 467 467 468 468 468 468 469 469 469 469 470 470 470 470 471 471 471 471 -1 -1 -1 -1 -1 -1 -1 -1 472 472 472 472 473 473 473 473 474 474 474 474 475 475 475 475 476 476 476 476 477 477 477 477 478 478 478 478 479 479 479 479 480 480 480 480 481 481 481 481 482 482 482 482 483 483 483 483 484 484 484 484 485 485 485 485 486 486 486 486 -1 -1 -1 -1 487 487 487 487 488 488 488 488 489 489 489 489 490 490 490 490 491 491 491 491 492 492 492 492 493 493 493 493 494 494 494 494 -1 -1 -1 -1 495 495 495 495 496 496 496 496 497 497 497 497 498 498 498 498 499 499 499 499 500 500 500 500 501 501 501 501 502 502 502 502 503 503 503 503 504 504 504 504 505 505 505 505 506 506 506 506 507 507 507 507 508 508 508 508 509 509 509 509 -1 -1 -1 -1 510 510 510 510 -1 -1 -1 -1 511 511 511 511 512 512 512 512 513 513 513 513 514 514 514 514 515 515 515 515 516 516 516 516 517 517 517 517 518 518 518 518 519 519 519 519 520 520 520 520 521 521 521 521 -1 -1 -1 -1 522 522 522 522 523 523 523 523 524 524 524 524 525 525 525 525 526 526 526 526 527 527 527 527 528 528 528 528 529 529 529 529 530 530 530 530 531 531 531 531 532 532 532 532 533 533 533 533 534 534 534 534 -1 -1 -1 -1 535 535 535 535 536 536 536 536 537 537 537 537 538 538 538 538 539 539 539 539 540 540 540 540 541 541 541 541 542 542 542 542 543 543 543 543 544 544 544 544 545 545 545 545 546 546 546 546 547 547 547 547 548 548 548 548 549 549 549 549 -1 -1 -1 -1 -1 -1 -1 -1 550 550 550 550 551 551 551 551 552 552 552 552 -1 -1 -1 -1 553 553 553 553 554 554 554 554 -1 -1 -1 -1 555 555 555 555 -1 -1 -1 -1 -1 -1 -1 -1 -1 -1 -1 -1 -1 -1 -1 -1 -1 -1 -1 -1 -1 -1 -1 -1 -1 -1 -1 -1 -1 -1 -1 -1 -1 -1 -1 -1 -1 -1 -1 -1 -1 -1 -1 -1 -1 -1 -1 -1 -1 -1 -1 -1 -1 -1 -1 -1 -1 -1 -1 -1 -1 -1 -1 -1 -1 -1 -1 -1 -1 -1 -1 -1 556 556 556 556 -1 -1 -1 -1 557 557 557 557 558 558 558 558 559 559 559 559 560 560 560 560 561 561 561 561 562 562 562 562 563 563 563 563 564 564 564 564 565 565 565 565 566 566 566 566 567 567 567 567 568 568 568 568 569 569 569 569 -1 -1 -1 -1 -1 -1 -1 -1 570 570 570 570 571 571 571 571 572 572 572 572 573 573 573 573 -1 -1 -1 -1 -1 -1 -1 -1 -1 -1 -1 -1 -1 -1 -1 -1 -1 -1 -1 -1 -1 -1 -1 -1 -1 -1 -1 -1 -1 -1 -1 -1 -1 -1 -1 -1 574 574 574 574 575 575 575 575 576 576 576 576 577 577 577 577 578 578 578 578 579 579 579 579 580 580 580 580 581 581 581 581 -1 -1 -1 -1 -1 -1 -1 -1 582 582 582 582 583 583 583 583 584 584 584 584 585 585 585 585 586 586 586 586 587 587 587 587 588 588 588 588 589 589 589 589 -1 -1 -1 -1 -1 -1 -1 -1 -1 -1 -1 -1 -1 -1 -1 -1 590 590 590 590 591 591 591 591 592 592 592 592 593 593 593 593 594 594 594 594 595 595 595 595 596 596 596 596 597 597 597 597 598 598 598 598 599 599 599 599 -1 -1 -1 -1 -1 -1 -1 -1 -1 -1 -1 -1 -1 -1 -1 -1 600 600 600 600 601 601 601 601 602 602 602 602 603 603 603 603 604 604 604 604 605 605 605 605 606 606 606 606 607 607 607 607 -1 -1 -1 -1 -1 -1 -1 -1 608 608 608 608 609 609 609 609 610 610 610 610 611 611 611 611 612 612 612 612 613 613 613 613 614 614 614 614 615 615 615 615 616 616 616 616 617 617 617 617 618 618 618 618 619 619 619 619 620 620 620 620 621 621 621 621 622 622 622 622 623 623 623 623 624 624 624 624 625 625 625 625 626 626 626 626 627 627 627 627 628 628 628 628 629 629 629 629 630 630 630 630 631 631 631 631 632 632 632 632 633 633 633 633 634 634 634 634 635 635 635 635 636 636 636 636 637 637 637 637 638 638 638 638 639 639 639 639 640 640 640 640 641 641 641 641 -1 -1 -1 -1 -1 -1 -1 -1 -1 -1 -1 -1 -1 -1 -1 -1 642 642 642 642 643 643 643 643 644 644 644 644 645 645 645 645 -1 -1 -1 -1 646 646 646 646 647 647 647 647 -1 -1 -1 -1 648 648 648 648 649 649 649 649 650 650 650 650 651 651 651 651 652 652 652 652 653 653 653 653 654 654 654 654 655 655 655 655 656 656 656 656 -1 -1 -1 -1 -1 -1 -1 -1 657 657 657 657 658 658 658 658 -1 -1 -1 -1 659 659 659 659 660 660 660 660 661 661 661 661 662 662 662 662 663 663 663 663 664 664 664 664 665 665 665 665 666 666 666 666 -1 -1 -1 -1 667 667 667 667 668 668 668 668 669 669 669 669 670 670 670 670 671 671 671 671 -1 -1 -1 -1 -1 -1 -1 -1 672 672 672 672 673 673 673 673 674 674 674 674 675 675 675 675 -1 -1 -1 -1 -1 -1 -1 -1 676 676 676 676 677 677 677 677 678 678 678 678 679 679 679 679 680 680 680 680 681 681 681 681 682 682 682 682 683 683 683 683 684 684 684 684 685 685 685 685 -1 -1 -1 -1 -1 -1 -1 -1 686 686 686 686 687 687 687 687 -1 -1 -1 -1 -1 -1 -1 -1 -1 -1 -1 -1 688 688 688 688 -1 -1 -1 -1 689 689 689 689 690 690 690 690 691 691 691 691 692 692 692 692 -1 -1 -1 -1 -1 -1 -1 -1 -1 -1 -1 -1 -1 -1 -1 -1 -1 -1 -1 -1 -1 -1 -1 -1 -1 -1 -1 -1 -1 -1 -1 -1 -1 -1 -1 -1 -1 -1 -1 -1 -1 -1 -1 -1 -1 -1 -1 -1 -1 -1 -1 -1 -1 -1 -1 -1 693 693 693 693 694 694 694 694 -1 -1 -1 -1 -1 -1 -1 -1 -1 -1 -1 -1 -1 -1 -1 -1 -1 -1 -1 -1 -1 -1 -1 -1 695 695 695 695 -1 -1 -1 -1 696 696 696 696 697 697 697 697 -1 -1 -1 -1 -1 -1 -1 -1 -1 -1 -1 -1 -1 -1 -1 -1 -1 -1 -1 -1 -1 -1 -1 -1 -1 -1 -1 -1 -1 -1 -1 -1 -1 -1 -1 -1 -1 -1 -1 -1 -1 -1 -1 -1 -1 -1 -1 -1 -1 -1 -1 -1 -1 -1 -1 -1 -1 -1 -1 -1 -1 -1 -1 -1 -1 -1 -1 -1 -1 -1 -1 -1 -1 -1 -1 -1 -1 -1 -1 -1 -1 -1 -1 -1 -1 -1 -1 -1 -1 -1 -1 -1 -1 -1 -1 -1 -1 -1 -1 -1 -1 -1 -1 -1 -1 -1 -1 -1 -1 -1 -1 -1 -1 -1 -1 -1 -1 -1 -1 -1 -1 -1 -1 -1 -1 -1 -1 -1 -1 -1 -1 -1 -1 -1 -1 -1 -1 -1 -1 -1 -1 -1 -1 -1 -1 -1 -1 -1 -1 -1 -1 -1 -1 -1 -1 -1 -1 -1 -1 -1 -1 -1 -1 -1 -1 -1 -1 -1 -1 -1 -1 -1 -1 -1 -1 -1 -1 -1 -1 -1 -1 -1 -1 -1 -1 -1 -1 -1 -1 -1 -1 -1 -1 -1 -1 -1 -1 -1 -1 -1 -1 -1 -1 -1 -1 -1 -1 -1 -1 -1 -1 -1 -1 -1 -1 -1 -1 -1 -1 -1 -1 -1 -1 -1 -1 -1 -1 -1 -1 -1 -1 -1 -1 -1 -1 -1 -1 -1 -1 -1 -1 -1 -1 -1 -1 -1 -1 -1 -1 -1 -1 -1 -1 -1 -1 -1 -1 -1 -1 -1 -1 -1 -1 -1 -1 -1 -1 -1 -1 -1 -1 -1 -1 -1 -1 -1 -1 -1 -1 -1 -1 -1 -1 -1 -1 -1 -1 -1 -1 -1 -1 -1 -1 -1 -1 -1 -1 -1 -1 -1 -1 -1 -1 -1 -1 -1 -1 -1 -1 -1 -1 -1 -1 -1 -1 -1 -1 -1 -1 -1 -1 -1 -1 -1 -1 -1 -1 -1 -1 -1 -1 -1 -1 -1 -1 -1 -1 -1 -1 -1 -1 -1 -1 -1 -1 -1 -1 -1 -1 -1 -1 -1 -1 -1 -1 -1 -1 -1 -1 -1 -1 -1 -1 -1 -1 -1 -1 -1 -1 -1 -1 -1 -1 -1 -1 -1 -1 -1 -1 -1 -1 -1 -1 -1 -1 -1 -1 -1 -1 -1 -1 -1 -1 -1 -1 -1 -1 -1 -1 -1 -1 -1 -1 -1 -1 -1 -1 -1 -1 -1 -1 -1 -1 -1 -1 -1 -1 -1 -1 -1 -1 -1 -1 -1 -1 -1 -1 -1 -1 -1 -1 -1 -1 -1 -1 -1 -1 -1 -1 -1 -1 -1 -1 -1 -1 -1 -1 -1 -1 -1 -1 -1 -1 -1 -1 -1 -1 -1 -1 -1 -1 -1 -1 -1 -1 -1 -1 -1 -1 -1 -1 -1 -1 -1 -1 -1 -1 -1 -1 -1 -1 -1 -1 -1 -1 -1 -1 -1 -1 -1 -1 -1 -1 -1 -1 -1 -1 -1 -1 -1 -1 -1 -1 -1 -1 -1 -1 -1 -1 -1 -1 -1 -1 -1 -1 -1 -1 -1 -1 -1 -1 -1 -1 -1 -1 -1 -1 -1 -1 -1 -1 -1 -1 -1 -1 -1 -1 -1 -1 -1 -1 -1 -1 -1 -1 -1 -1 -1 -1 -1 -1 -1 -1 -1 -1 -1 -1 -1 -1 -1 -1 -1 -1 -1 -1 -1 -1 -1 -1 -1 -1 -1 -1 -1 -1 -1 -1 -1 -1 -1 -1 -1 -1 -1 -1 -1 -1 -1 -1 -1 -1 -1 -1 -1 -1 -1 -1 -1 -1 -1 -1 -1 -1 -1 
POINT_DATA 2043
SCALARS ab-pot double 1
LOOKUP_TABLE default