# vtk DataFile Version 3.0
d-2__ created by libgimli-v1.5.0-1-g5991b6ac
ASCII
DATASET UNSTRUCTURED_GRID
POINTS 3524 double
-3.9319679543248	17.515	0
-3.9319679543248	-19.618685848	0
96.766182574325	-19.618685848	0
96.766182574325	19.012	0
-375.26882643432	17.515	0
-375.26882643432	-390.955544328	0
468.10304105432	19.012	0
468.10304105432	-389.458544328	0
0	17.515	0
0.48126733725	17.61475	0
1.44380201175	17.81425	0
1.925069349	17.914	0
2.40638252775	18.0425	0
3.36900888525	18.2995	0
3.850322064	18.428	0
4.3226541325	18.5905	0
5.2673182695	18.9155	0
5.739650338	19.078	0
6.212692827	19.15725	0
7.158777805	19.31575	0
7.631820294	19.395	0
8.14338708675	19.468	0
9.16652067225	19.614	0
9.678087465	19.687	0
10.16494100375	19.76625	0
11.13864808125	19.92475	0
11.62550162	20.004	0
12.1235358925	20.068	0
13.1196044375	20.196	0
13.61763871	20.26	0
14.110726185	20.26725	0
15.096901135	20.28175	0
15.58998861	20.289	0
16.075691865	20.32175	0
17.047098375	20.38725	0
17.53280163	20.42	0
18.03277302	20.411	0
19.0327158	20.393	0
19.53268719	20.384	0
20.0333939725	20.35125	0
21.0348075375	20.28575	0
21.53551432	20.253	0
22.04662739	20.25425	0
23.06885353	20.25675	0
23.5799666	20.258	0
24.0646259775	20.2825	0
25.0339447325	20.3315	0
25.51860411	20.356	0
26.0197340925	20.362	0
27.0219940575	20.374	0
27.52312404	20.38	0
28.005257555	20.3845	0
28.969524585	20.3935	0
29.4516581	20.398	0
29.9559760025	20.4035	0
30.9646118075	20.4145	0
31.46892971	20.42	0
31.96809303	20.40225	0
32.96641967	20.36675	0
33.46558299	20.349	0
33.9652960325	20.35	0
34.9647221175	20.352	0
35.46443516	20.353	0
35.9639897875	20.334	0
36.9630990425	20.296	0
37.46265367	20.277	0
37.9623625275	20.25125	0
38.9617802425	20.19975	0
39.4614891	20.174	0
39.9338597425	20.1565	0
40.8786010275	20.1215	0
41.35097167	20.104	0
41.87770877	20.09725	0
42.93118297	20.08375	0
43.45792007	20.077	0
43.954033595	20.07925	0
44.946260645	20.08375	0
45.44237417	20.086	0
45.93778608	20.098	0
46.9286099	20.122	0
47.42402181	20.134	0
47.93278617	20.1645	0
48.95031489	20.2255	0
49.45907925	20.256	0
49.9420634075	20.26175	0
50.9080317225	20.27325	0
51.39101588	20.279	0
51.879168855	20.27275	0
52.855474805	20.26025	0
53.34362778	20.254	0
53.8440653775	20.23925	0
54.8449405725	20.20975	0
55.34537817	20.195	0
55.84196463	20.2125	0
56.83513755	20.2475	0
57.33172401	20.265	0
57.83918955	20.27725	0
58.85412063	20.30175	0
59.36158617	20.314	0
59.8502441675	20.375	0
60.8275601625	20.497	0
61.31621816	20.558	0
61.813778215	20.56675	0
62.808898325	20.58425	0
63.30645838	20.593	0
63.803648355	20.61525	0
64.798028305	20.65975	0
65.29521828	20.682	0
65.791989685	20.663	0
66.785532495	20.625	0
67.2823039	20.606	0
67.781342255	20.6115	0
68.779418965	20.6225	0
69.27845732	20.628	0
69.77993362	20.62625	0
70.78288622	20.62275	0
71.28436252	20.621	0
71.791201155	20.60875	0
72.804878425	20.58425	0
73.31171706	20.572	0
73.8022502325	20.5705	0
74.7833165775	20.5675	0
75.27384975	20.566	0
75.764200665	20.51425	0
76.744902495	20.41075	0
77.23525341	20.359	0
77.7331640725	20.2945	0
78.7289853975	20.1655	0
79.22689606	20.101	0
79.7167616225	20.013	0
80.6964927475	19.837	0
81.18635831	19.749	0
81.6795108725	19.669	0
82.6658159975	19.509	0
83.15896856	19.429	0
83.6341334375	19.35475	0
84.5844631925	19.20625	0
85.05962807	19.132	0
85.550409805	19.10525	0
86.531973275	19.05175	0
87.02275501	19.025	0
87.5115102675	18.98825	0
88.4890207825	18.91475	0
88.97777604	18.878	0
89.44739238	18.8965	0
90.38662506	18.9335	0
90.8562414	18.952	0
91.350734705	18.967	0
92.339721315	18.997	0
92.83421462	19.012	0
0.25391661046123	16.651735153767	0
6.5898363746152	18.068611823642	0
11.213390282783	19.221805689004	0
46.416544294207	19.328232772169	0
23.922245503647	19.46258708974	0
17.270225457344	19.620739246452	0
34.042778679635	19.666125827045	0
80.502744992558	19.17920386375	0
55.737253483097	19.333404447823	0
89.310208181022	18.057468953587	0
49.161648370636	19.659693665129	0
61.132337591735	19.777179405813	0
65.596573006109	20.038740346656	0
74.712207148282	19.931695916486	0
2.3311345711669	17.306451581285	0
7.3830640888181	18.652355887711	0
5.7988175207754	18.486935101578	0
4.4330365824616	17.595460180597	0
13.830640585091	19.590127188327	0
10.202875093207	18.933127108996	0
37.913179808037	18.697581789968	0
49.156343140873	18.819445533745	0
27.832172068439	19.587850917566	0
24.972671377371	19.631084203935	0
16.238115856313	19.624770907469	0
33.232480050435	19.819029262927	0
37.03668128417	19.420669337632	0
35.099560859409	19.552973347268	0
84.373104839697	18.516980459385	0
81.337309186352	19.172582798529	0
79.429510960435	19.242848756605	0
56.829736660398	19.495126510398	0
44.045583072799	19.361704457048	0
96.766182574325	3.012	0
90.324948985371	18.220127418134	0
88.636018377705	18.282601340996	0
39.679926277195	18.784825992158	0
62.976811173964	19.794302959068	0
61.706629028179	20.053183437147	0
60.07255006138	19.704316906111	0
67.576019025144	19.880777046201	0
65.036860591907	20.130852265741	0
76.754932749606	19.676389642447	0
75.506041341413	20.05696463343	0
73.675693853205	19.830559312566	0
1.7587126967387	17.260799449513	0
3.6030767043715	17.5221685979	0
40.344526247319	19.434921189538	0
50.529952276086	19.523453311326	0
35.93817218266	18.919186989656	0
28.87186108686	19.690047816139	0
15.392207242999	19.683461984888	0
31.744491070146	19.703645610259	0
35.759745210363	19.782975314513	0
86.641251945392	18.368258003922	0
85.317739641591	18.45729891507	0
83.337914129937	18.590870977468	0
91.101834698859	18.396409387362	0
53.073523025434	19.763653712327	0
63.669744559117	20.023347179682	0
68.625140805539	19.930963644192	0
66.962811813929	20.110024135673	0
87.240322122967	18.399808293245	0
82.726602652311	18.914831400471	0
11.96602946939	19.53270110308	0
45.731529267574	19.464115009546	0
23.23629159713	19.660496803426	0
17.878572900645	19.852763435629	0
19.847640149549	19.548553276801	0
55.022955899345	19.562238426486	0
52.477957107243	19.606503312798	0
8.0688130515981	18.924322812257	0
5.1445616549919	18.087820483586	0
13.28371171356	19.731297974694	0
9.4693310956937	19.082151798185	0
47.254347370459	19.346253221968	0
27.185724939067	19.811128782319	0
25.782725008674	19.810910953248	0
37.760488359387	19.637322847006	0
82.024457211345	18.947818608996	0
78.793568790151	19.558596458695	0
57.663117367792	19.671488070108	0
53.592762356757	19.627014107896	0
62.010239715273	19.311737822914	0
62.263146860848	20.061651928215	0
59.201535246196	19.71738056409	0
77.455809654352	19.80457570146	0
75.691338455391	19.286397601541	0
76.092108725061	19.988837523759	0
73.020605255435	20.027998161983	0
39.177244615236	19.530727043032	0
51.153221597875	19.704781304852	0
57.871026683763	18.765473373744	0
29.704487203882	19.834353106671	0
14.655836555493	19.535230766595	0
31.153316225929	19.828008684282	0
49.745026114495	19.506681786278	0
36.332325316938	19.751074967769	0
91.178791805573	17.586899747463	0
91.78280486435	18.270382549714	0
51.223996074918	18.879766489151	0
39.718770523605	19.616912247789	0
63.881142884342	19.143370253949	0
64.383485278416	19.978256269469	0
69.486521584545	20.037975508614	0
87.100229137567	17.410003290233	0
87.910968003154	18.223124603901	0
12.222489657304	18.808427319224	0
12.652463441475	19.563909642257	0
22.512494894511	19.567514968388	0
18.539770732976	19.756781335656	0
20.915632043858	19.580307926337	0
19.204486827067	19.818196845135	0
5.8573057067634	17.595571228191	0
8.7929934505227	18.921525755301	0
40.721196853417	18.53483584044	0
53.110202160594	19.07336609917	0
26.494863001862	19.724085986196	0
38.431893703428	19.5310087282	0
81.291360743019	18.325141929109	0
42.46733201071	19.402369069679	0
54.336129561239	19.51863047149	0
58.449919939534	19.572051526087	0
77.453929821074	19.094955642087	0
78.107017832598	19.600345988709	0
72.359668764126	19.919430869807	0
43.162779476757	18.644798691041	0
51.726089519734	19.573486772476	0
52.240890064892	18.703071828839	0
29.782303287184	18.968479212441	0
30.44953841457	19.721717379662	0
15.393950887695	18.690655980907	0
65.113250673662	19.302593581591	0
70.240076683941	19.900693459468	0
13.204917244335	19.048896988481	0
23.101405495044	18.778755473012	0
18.030658934925	19.063757955106	0
21.772479540296	19.687613458651	0
8.4076128144541	18.183895291455	0
25.90195445365	19.002021132553	0
43.212323096448	19.514066671416	0
82.441257535544	18.106296023609	0
46.41710731	-19.618685848	0
78.479782373227	18.686011795876	0
71.558281109706	19.888895849436	0
72.952060623876	19.236992646501	0
31.127950302585	18.886948739315	0
69.508997293419	19.10974098181	0
19.078368353001	19.016567535742	0
9.5197819912666	18.25608381694	0
27.048596380863	19.009048883128	0
48.514866303897	19.497993199386	0
70.958026266594	20.007548989117	0
70.925426092669	19.008082366791	0
32.541617869595	19.711886939742	0
1.1387312175342	16.949341193067	0
2.9419681271364	17.578566690911	0
84.976045765821	17.662009265596	0
85.996513806596	18.553490963529	0
66.331393800407	20.04256171447	0
88.476735064313	17.355273175551	0
5.2105778238071	17.317927402016	0
38.824134146277	18.856239532234	0
41.896733247044	18.557162297469	0
53.863677060592	18.920451084647	0
21.856684447557	18.795802244982	0
6.6961857360698	16.972942150934	0
59.274336451918	18.71324555854	0
33.137922317942	19.001483699654	0
-3.9319679543248	1.515	0
4.0310848144132	16.493313975304	0
66.839291532911	19.403637421107	0
5.7408670466507	16.601467872881	0
4.9015157698897	16.67768428415	0
5.1041599545502	15.359459182633	0
14.127647240423	18.703223370706	0
72.032649074646	19.175271508061	0
85.93248955921	17.79438057507	0
32.188840384341	18.980094349441	0
3.1608375677961	15.047014557991	0
3.0037528211264	16.711238295716	0
66.013526943523	19.424558311082	0
14.574613484892	17.460249544201	0
72.371627838988	17.828608205686	0
85.545455381952	16.332309629746	0
45.079171573918	19.241945559132	0
-1.0095009579567	16.363177547512	0
1.95761812031	16.306607940342	0
66.190124120288	18.34533554951	0
-1.9659839771624	17.515	0
94.800198597162	19.012	0
[...]
CELL_DATA 6692
SCALARS Marker double 1
LOOKUP_TABLE default
-1 -1 -1 -1 0 0 0 0 1 1 1 1 -1 -1 -1 -1 -1 -1 -1 -1 2 2 2 2 3 3 3 3 4 4 4 4 5 5 5 5 6 6 6 6 7 7 7 7 8 8 8 8 9 9 9 9 10 10 10 10 11 11 11 11 12 12 12 12 13 13 13 13 14 14 14 14 15 15 15 15 16 16 16 16 17 17 17 17 18 18 18 18 19 19 19 19 20 20 20 20 21 21 21 21 22 22 22 22 23 23 23 23 24 24 24 24 25 25 25 25 26 26 26 26 27 27 27 27 28 28 28 28 29 29 29 29 30 30 30 30 31 31 31 31 32 32 32 32 33 33 33 33 34 34 34 34 35 35 35 35 36 36 36 36 37 37 37 37 38 38 38 38 39 39 39 39 40 40 40 40 41 41 41 41 42 42 42 42 43 43 43 43 44 44 44 44 45 45 45 45 46 46 46 46 47 47 47 47 48 48 48 48 49 49 49 49 50 50 50 50 51 51 51 51 52 52 52 52 53 53 53 53 54 54 54 54 55 55 55 55 56 56 56 56 57 57 57 57 58 58 58 58 59 59 59 59 60 60 60 60 61 61 61 61 62 62 62 62 63 63 63 63 64 64 64 64 65 65 65 65 66 66 66 66 -1 -1 -1 -1 67 67 67 67 68 68 68 68 69 69 69 69 70 70 70 70 71 71 71 71 72 72 72 72 73 73 73 73 74 74 74 74 75 75 75 75 76 76 76 76 77 77 77 77 78 78 78 78 79 79 79 79 80 80 80 80 81 81 81 81 82 82 82 82 83 83 83 83 84 84 84 84 85 85 85 85 86 86 86 86 87 87 87 87 88 88 88 88 89 89 89 89 90 90 90 90 91 91 91 91 92 92 92 92 93 93 93 93 94 94 94 94 95 95 95 95 96 96 96 96 97 97 97 97 98 98 98 98 99 99 99 99 100 100 100 100 101 101 101 101 102 102 102 102 103 103 103 103 104 104 104 104 105 105 105 105 106 106 106 106 107 107 107 107 108 108 108 108 109 109 109 109 110 110 110 110 111 111 111 111 112 112 112 112 113 113 113 113 114 114 114 114 115 115 115 115 116 116 116 116 117 117 117 117 118 118 118 118 119 119 119 119 120 120 120 120 121 121 121 121 122 122 122 122 123 123 123 123 124 124 124 124 125 125 125 125 126 126 126 126 127 127 127 127 128 128 128 128 129 129 129 129 130 130 130 130 131 131 131 131 132 132 132 132 133 133 133 133 134 134 134 134 135 135 135 135 136 136 136 136 137 137 137 137 138 138 138 138 139 139 139 139 140 140 140 140 141 141 141 141 142 142 142 142 143 143 143 143 144 144 144 144 145 145 145 145 146 146 146 146 147 147 147 147 148 148 148 148 149 149 149 149 150 150 150 150 151 151 151 151 152 152 152 152 153 153 153 153 154 154 154 154 155 155 155 155 156 156 156 156 157 157 157 157 158 158 158 158 159 159 159 159 160 160 160 160 161 161 161 161 162 162 162 162 163 163 163 163 164 164 164 164 165 165 165 165 166 166 166 166 167 167 167 167 168 168 168 168 169 169 169 169 170 170 170 170 171 171 171 171 172 172 172 172 173 173 173 173 174 174 174 174 175 175 175 175 176 176 176 176 177 177 177 177 178 178 178 178 179 179 179 179 180 180 180 180 181 181 181 181 182 182 182 182 183 183 183 183 184 184 184 184 185 185 185 185 186 186 186 186 187 187 187 187 188 188 188 188 189 189 189 189 -1 -1 -1 -1 190 190 190 190 191 191 191 191 192 192 192 192 193 193 193 193 194 194 194 194 195 195 195 195 196 196 196 196 197 197 197 197 198 198 198 198 199 199 199 199 200 200 200 200 201 201 201 201 202 202 202 202 203 203 203 203 204 204 204 204 205 205 205 205 206 206 206 206 -1 -1 -1 -1 207 207 207 207 208 208 208 208 209 209 209 209 210 210 210 210 211 211 211 211 -1 -1 -1 -1 212 212 212 212 213 213 213 213 214 214 214 214 215 215 215 215 216 216 216 216 217 217 217 217 218 218 218 218 219 219 219 219 220 220 220 220 221 221 221 221 222 222 222 222 223 223 223 223 224 224 224 224 225 225 225 225 226 226 226 226 227 227 227 227 228 228 228 228 229 229 229 229 230 230 230 230 231 231 231 231 232 232 232 232 233 233 233 233 234 234 234 234 235 235 235 235 236 236 236 236 237 237 237 237 238 238 238 238 239 239 239 239 240 240 240 240 241 241 241 241 242 242 242 242 243 243 243 243 244 244 244 244 245 245 245 245 246 246 246 246 247 247 247 247 248 248 248 248 249 249 249 249 250 250 250 250 251 251 251 251 252 252 252 252 253 253 253 253 254 254 254 254 255 255 255 255 256 256 256 256 257 257 257 257 258 258 258 258 259 259 259 259 260 260 260 260 261 261 261 261 262 262 262 262 263 263 263 263 264 264 264 264 265 265 265 265 266 266 266 266 267 267 267 267 268 268 268 268 269 269 269 269 270 270 270 270 271 271 271 271 272 272 272 272 273 273 273 273 274 274 274 274 275 275 275 275 276 276 276 276 277 277 277 277 278 278 278 278 279 279 279 279 280 280 280 280 281 281 281 281 282 282 282 282 283 283 283 283 284 284 284 284 285 285 285 285 286 286 286 286 287 287 287 287 288 288 288 288 289 289 289 289 290 290 290 290 291 291 291 291 292 292 292 292 293 293 293 293 294 294 294 294 295 295 295 295 296 296 296 296 297 297 297 297 298 298 298 298 299 299 299 299 300 300 300 300 301 301 301 301 302 302 302 302 303 303 303 303 304 304 304 304 305 305 305 305 306 306 306 306 307 307 307 307 308 308 308 308 309 309 309 309 310 310 310 310 311 311 311 311 312 312 312 312 313 313 313 313 314 314 314 314 315 315 315 315 316 316 316 316 317 317 317 317 318 318 318 318 319 319 319 319 320 320 320 320 321 321 321 321 322 322 322 322 323 323 323 323 324 324 324 324 325 325 325 325 326 326 326 326 327 327 327 327 328 328 328 328 329 329 329 329 330 330 330 330 331 331 331 331 332 332 332 332 333 333 333 333 334 334 334 334 335 335 335 335 336 336 336 336 337 337 337 337 338 338 338 338 339 339 339 339 -1 -1 -1 -1 340 340 340 340 -1 -1 -1 -1 341 341 341 341 342 342 342 342 -1 -1 -1 -1 343 343 343 343 344 344 344 344 345 345 345 345 346 346 346 346 347 347 347 347 348 348 348 348 349 349 349 349 350 350 350 350 351 351 351 351 352 352 352 352 353 353 353 353 354 354 354 354 355 355 355 355 356 356 356 356 357 357 357 357 358 358 358 358 359 359 359 359 360 360 360 360 361 361 361 361 362 362 362 362 363 363 363 363 364 364 364 364 365 365 365 365 366 366 366 366 367 367 367 367 368 368 368 368 369 369 369 369 370 370 370 370 371 371 371 371 372 372 372 372 373 373 373 373 374 374 374 374 375 375 375 375 376 376 376 376 377 377 377 377 378 378 378 378 379 379 379 379 380 380 380 380 381 381 381 381 382 382 382 382 383 383 383 383 384 384 384 384 385 385 385 385 386 386 386 386 387 387 387 387 388 388 388 388 389 389 389 389 390 390 390 390 391 391 391 391 392 392 392 392 393 393 393 393 394 394 394 394 395 395 395 395 396 396 396 396 397 397 397 397 398 398 398 398 399 399 399 399 400 400 400 400 401 401 401 401 402 402 402 402 403 403 403 403 404 404 404 404 405 405 405 405 406 406 406 406 407 407 407 407 408 408 408 408 409 409 409 409 410 410 410 410 411 411 411 411 412 412 412 412 413 413 413 413 414 414 414 414 415 415 415 415 416 416 416 416 417 417 417 417 418 418 418 418 419 419 419 419 420 420 420 420 421 421 421 421 422 422 422 422 423 423 423 423 424 424 424 424 425 425 425 425 426 426 426 426 427 427 427 427 428 428 428 428 429 429 429 429 430 430 430 430 431 431 431 431 432 432 432 432 433 433 433 433 434 434 434 434 435 435 435 435 436 436 436 436 437 437 437 437 438 438 438 438 439 439 439 439 440 440 440 440 441 441 441 441 442 442 442 442 443 443 443 443 444 444 444 444 445 445 445 445 446 446 446 446 447 447 447 447 448 448 448 448 449 449 449 449 450 450 450 450 451 451 451 451 452 452 452 452 453 453 453 453 454 454 454 454 455 455 455 455 456 456 456 456 457 457 457 457 458 458 458 458 459 459 459 459 460 460 460 460 461 461 461 461 462 462 462 462 463 463 463 463 464 464 464 464 465 465 465 465 466 466 466 466 467 467 467 467 468 468 468 468 469 469 469 469 470 470 470 470 471 471 471 471 472 472 472 472 473 473 473 473 474 474 474 474 475 475 475 475 476 476 476 476 477 477 477 477 478 478 478 478 479 479 479 479 480 480 480 480 481 481 481 481 482 482 482 482 483 483 483 483 484 484 484 484 485 485 485 485 486 486 486 486 487 487 487 487 488 488 488 488 489 489 489 489 490 490 490 490 491 491 491 491 492 492 492 492 493 493 493 493 494 494 494 494 495 495 495 495 496 496 496 496 497 497 497 497 498 498 498 498 499 499 499 499 500 500 500 500 501 501 501 501 502 502 502 502 503 503 503 503 504 504 504 504 505 505 505 505 506 506 506 506 507 507 507 507 508 508 508 508 509 509 509 509 510 510 510 510 511 511 511 511 512 512 512 512 513 513 513 513 514 514 514 514 515 515 515 515 516 516 516 516 517 517 517 517 518 518 518 518 519 519 519 519 520 520 520 520 521 521 521 521 522 522 522 522 523 523 523 523 524 524 524 524 525 525 525 525 526 526 526 526 527 527 527 527 528 528 528 528 529 529 529 529 530 530 530 530 531 531 531 531 532 532 532 532 533 533 533 533 534 534 534 534 535 535 535 535 536 536 536 536 537 537 537 537 538 538 538 538 539 539 539 539 540 540 540 540 541 541 541 541 542 542 542 542 543 543 543 543 544 544 544 544 545 545 545 545 546 546 546 546 547 547 547 547 548 548 548 548 549 549 549 549 550 550 550 550 551 551 551 551 552 552 552 552 -1 -1 -1 -1 553 553 553 553 554 554 554 554 555 555 555 555 556 556 556 556 557 557 557 557 558 558 558 558 559 559 559 559 560 560 560 560 561 561 561 561 562 562 562 562 563 563 563 563 564 564 564 564 565 565 565 565 566 566 566 566 567 567 567 567 568 568 568 568 569 569 569 569 570 570 570 570 571 571 571 571 572 572 572 572 573 573 573 573 574 574 574 574 575 575 575 575 576 576 576 576 577 577 577 577 578 578 578 578 579 579 579 579 580 580 580 580 581 581 581 581 582 582 582 582 583 583 583 583 584 584 584 584 585 585 585 585 586 586 586 586 587 587 587 587 588 588 588 588 589 589 589 589 590 590 590 590 -1 -1 -1 -1 591 591 591 591 592 592 592 592 593 593 593 593 594 594 594 594 595 595 595 595 596 596 596 596 597 597 597 597 598 598 598 598 599 599 599 599 600 600 600 600 601 601 601 601 602 602 602 602 603 603 603 603 604 604 604 604 605 605 605 605 606 606 606 606 607 607 607 607 608 608 608 608 609 609 609 609 610 610 610 610 611 611 611 611 612 612 612 612 613 613 613 613 614 614 614 614 615 615 615 615 616 616 616 616 617 617 617 617 618 618 618 618 619 619 619 619 620 620 620 620 621 621 621 621 622 622 622 622 623 623 623 623 624 624 624 624 625 625 625 625 626 626 626 626 627 627 627 627 628 628 628 628 629 629 629 629 630 630 630 630 631 631 631 631 632 632 632 632 633 633 633 633 634 634 634 634 635 635 635 635 636 636 636 636 637 637 637 637 638 638 638 638 639 639 639 639 640 640 640 640 641 641 641 641 642 642 642 642 643 643 643 643 644 644 644 644 645 645 645 645 646 646 646 646 647 647 647 647 648 648 648 648 649 649 649 649 650 650 650 650 651 651 651 651 652 652 652 652 653 653 653 653 654 654 654 654 655 655 655 655 656 656 656 656 657 657 657 657 658 658 658 658 659 659 659 659 660 660 660 660 661 661 661 661 662 662 662 662 -1 -1 -1 -1 663 663 663 663 -1 -1 -1 -1 664 664 664 664 665 665 665 665 666 666 666 666 667 667 667 667 668 668 668 668 669 669 669 669 670 670 670 670 671 671 671 671 672 672 672 672 673 673 673 673 674 674 674 674 675 675 675 675 676 676 676 676 677 677 677 677 678 678 678 678 679 679 679 679 680 680 680 680 681 681 681 681 682 682 682 682 683 683 683 683 684 684 684 684 685 685 685 685 686 686 686 686 687 687 687 687 688 688 688 688 689 689 689 689 690 690 690 690 691 691 691 691 692 692 692 692 693 693 693 693 694 694 694 694 695 695 695 695 696 696 696 696 697 697 697 697 698 698 698 698 699 699 699 699 700 700 700 700 701 701 701 701 702 702 702 702 703 703 703 703 704 704 704 704 705 705 705 705 706 706 706 706 707 707 707 707 708 708 708 708 709 709 709 709 710 710 710 710 711 711 711 711 712 712 712 712 713 713 713 713 714 714 714 714 715 715 715 715 716 716 716 716 717 717 717 717 718 718 718 718 719 719 719 719 720 720 720 720 721 721 721 721 722 722 722 722 723 723 723 723 724 724 724 724 725 725 725 725 726 726 726 726 727 727 727 727 728 728 728 728 -1 -1 -1 -1 729 729 729 729 730 730 730 730 731 731 731 731 732 732 732 732 -1 -1 -1 -1 733 733 733 733 734 734 734 734 -1 -1 -1 -1 735 735 735 735 -1 -1 -1 -1 -1 -1 -1 -1 -1 -1 -1 -1 -1 -1 -1 -1 736 736 736 736 -1 -1 -1 -1 -1 -1 -1 -1 737 737 737 737 738 738 738 738 739 739 739 739 740 740 740 740 741 741 741 741 742 742 742 742 743 743 743 743 744 744 744 744 745 745 745 745 746 746 746 746 747 747 747 747 748 748 748 748 749 749 749 749 750 750 750 750 751 751 751 751 752 752 752 752 753 753 753 753 754 754 754 754 755 755 755 755 756 756 756 756 757 757 757 757 758 758 758 758 759 759 759 759 760 760 760 760 761 761 761 761 762 762 762 762 763 763 763 763 764 764 764 764 765 765 765 765 766 766 766 766 767 767 767 767 768 768 768 768 769 769 769 769 770 770 770 770 771 771 771 771 772 772 772 772 773 773 773 773 774 774 774 774 775 775 775 775 776 776 776 776 777 777 777 777 778 778 778 778 779 779 779 779 780 780 780 780 781 781 781 781 782 782 782 782 783 783 783 783 784 784 784 784 785 785 785 785 786 786 786 786 787 787 787 787 788 788 788 788 789 789 789 789 790 790 790 790 791 791 791 791 792 792 792 792 793 793 793 793 794 794 794 794 795 795 795 795 796 796 796 796 797 797 797 797 -1 -1 -1 -1 -1 -1 -1 -1 -1 -1 -1 -1 -1 -1 -1 -1 798 798 798 798 799 799 799 799 800 800 800 800 801 801 801 801 -1 -1 -1 -1 -1 -1 -1 -1 -1 -1 -1 -1 -1 -1 -1 -1 802 802 802 802 -1 -1 -1 -1 803 803 803 803 804 804 804 804 805 805 805 805 806 806 806 806 807 807 807 807 808 808 808 808 809 809 809 809 810 810 810 810 811 811 811 811 812 812 812 812 813 813 813 813 814 814 814 814 -1 -1 -1 -1 815 815 815 815 816 816 816 816 -1 -1 -1 -1 817 817 817 817 818 818 818 818 819 819 819 819 -1 -1 -1 -1 -1 -1 -1 -1 -1 -1 -1 -1 -1 -1 -1 -1 -1 -1 -1 -1 820 820 820 820 821 821 821 821 822 822 822 822 823 823 823 823 824 824 824 824 825 825 825 825 826 826 826 826 827 827 827 827 828 828 828 828 829 829 829 829 830 830 830 830 -1 -1 -1 -1 831 831 831 831 832 832 832 832 833 833 833 833 834 834 834 834 835 835 835 835 836 836 836 836 837 837 837 837 838 838 838 838 839 839 839 839 840 840 840 840 841 841 841 841 842 842 842 842 843 843 843 843 844 844 844 844 845 845 845 845 846 846 846 846 847 847 847 847 848 848 848 848 849 849 849 849 850 850 850 850 851 851 851 851 852 852 852 852 853 853 853 853 854 854 854 854 855 855 855 855 856 856 856 856 857 857 857 857 858 858 858 858 859 859 859 859 860 860 860 860 861 861 861 861 862 862 862 862 863 863 863 863 864 864 864 864 865 865 865 865 866 866 866 866 867 867 867 867 868 868 868 868 869 869 869 869 870 870 870 870 871 871 871 871 -1 -1 -1 -1 872 872 872 872 873 873 873 873 -1 -1 -1 -1 -1 -1 -1 -1 -1 -1 -1 -1 -1 -1 -1 -1 874 874 874 874 875 875 875 875 876 876 876 876 -1 -1 -1 -1 877 877 877 877 878 878 878 878 879 879 879 879 880 880 880 880 881 881 881 881 882 882 882 882 883 883 883 883 884 884 884 884 885 885 885 885 886 886 886 886 887 887 887 887 888 888 888 888 889 889 889 889 890 890 890 890 891 891 891 891 892 892 892 892 893 893 893 893 894 894 894 894 895 895 895 895 896 896 896 896 -1 -1 -1 -1 -1 -1 -1 -1 897 897 897 897 -1 -1 -1 -1 898 898 898 898 899 899 899 899 900 900 900 900 901 901 901 901 902 902 902 902 903 903 903 903 904 904 904 904 905 905 905 905 906 906 906 906 907 907 907 907 908 908 908 908 909 909 909 909 910 910 910 910 911 911 911 911 912 912 912 912 913 913 913 913 914 914 914 914 915 915 915 915 916 916 916 916 917 917 917 917 918 918 918 918 919 919 919 919 920 920 920 920 921 921 921 921 922 922 922 922 923 923 923 923 924 924 924 924 925 925 925 925 926 926 926 926 927 927 927 927 -1 -1 -1 -1 928 928 928 928 929 929 929 929 930 930 930 930 931 931 931 931 932 932 932 932 -1 -1 -1 -1 -1 -1 -1 -1 -1 -1 -1 -1 -1 -1 -1 -1 933 933 933 933 934 934 934 934 935 935 935 935 936 936 936 936 937 937 937 937 938 938 938 938 939 939 939 939 940 940 940 940 941 941 941 941 942 942 942 942 943 943 943 943 -1 -1 -1 -1 944 944 944 944 945 945 945 945 -1 -1 -1 -1 946 946 946 946 947 947 947 947 948 948 948 948 949 949 949 949 950 950 950 950 951 951 951 951 952 952 952 952 953 953 953 953 954 954 954 954 955 955 955 955 956 956 956 956 957 957 957 957 958 958 958 958 959 959 959 959 960 960 960 960 -1 -1 -1 -1 961 961 961 961 962 962 962 962 963 963 963 963 964 964 964 964 965 965 965 965 966 966 966 966 967 967 967 967 968 968 968 968 969 969 969 969 -1 -1 -1 -1 970 970 970 970 971 971 971 971 972 972 972 972 973 973 973 973 974 974 974 974 975 975 975 975 976 976 976 976 977 977 977 977 978 978 978 978 979 979 979 979 980 980 980 980 981 981 981 981 982 982 982 982 983 983 983 983 984 984 984 984 985 985 985 985 -1 -1 -1 -1 986 986 986 986 987 987 987 987 988 988 988 988 989 989 989 989 990 990 990 990 991 991 991 991 992 992 992 992 993 993 993 993 994 994 994 994 995 995 995 995 996 996 996 996 997 997 997 997 998 998 998 998 -1 -1 -1 -1 999 999 999 999 1000 1000 1000 1000 1001 1001 1001 1001 1002 1002 1002 1002 1003 1003 1003 1003 1004 1004 1004 1004 1005 1005 1005 1005 1006 1006 1006 1006 1007 1007 1007 1007 -1 -1 -1 -1 -1 -1 -1 -1 1008 1008 1008 1008 1009 1009 1009 1009 -1 -1 -1 -1 -1 -1 -1 -1 -1 -1 -1 -1 -1 -1 -1 -1 -1 -1 -1 -1 -1 -1 -1 -1 -1 -1 -1 -1 -1 -1 -1 -1 -1 -1 -1 -1 1010 1010 1010 1010 1011 1011 1011 1011 1012 1012 1012 1012 1013 1013 1013 1013 1014 1014 1014 1014 1015 1015 1015 1015 1016 1016 1016 1016 1017 1017 1017 1017 1018 1018 1018 1018 1019 1019 1019 1019 1020 1020 1020 1020 1021 1021 1021 1021 1022 1022 1022 1022 1023 1023 1023 1023 1024 1024 1024 1024 1025 1025 1025 1025 1026 1026 1026 1026 1027 1027 1027 1027 1028 1028 1028 1028 1029 1029 1029 1029 1030 1030 1030 1030 1031 1031 1031 1031 1032 1032 1032 1032 1033 1033 1033 1033 1034 1034 1034 1034 1035 1035 1035 1035 1036 1036 1036 1036 1037 1037 1037 1037 1038 1038 1038 1038 1039 1039 1039 1039 1040 1040 1040 1040 1041 1041 1041 1041 1042 1042 1042 1042 1043 1043 1043 1043 1044 1044 1044 1044 1045 1045 1045 1045 1046 1046 1046 1046 1047 1047 1047 1047 1048 1048 1048 1048 1049 1049 1049 1049 -1 -1 -1 -1 -1 -1 -1 -1 1050 1050 1050 1050 1051 1051 1051 1051 1052 1052 1052 1052 -1 -1 -1 -1 1053 1053 1053 1053 1054 1054 1054 1054 1055 1055 1055 1055 1056 1056 1056 1056 1057 1057 1057 1057 1058 1058 1058 1058 1059 1059 1059 1059 1060 1060 1060 1060 1061 1061 1061 1061 1062 1062 1062 1062 1063 1063 1063 1063 1064 1064 1064 1064 1065 1065 1065 1065 1066 1066 1066 1066 1067 1067 1067 1067 1068 1068 1068 1068 1069 1069 1069 1069 1070 1070 1070 1070 1071 1071 1071 1071 -1 -1 -1 -1 -1 -1 -1 -1 1072 1072 1072 1072 1073 1073 1073 1073 1074 1074 1074 1074 1075 1075 1075 1075 1076 1076 1076 1076 1077 1077 1077 1077 1078 1078 1078 1078 1079 1079 1079 1079 1080 1080 1080 1080 1081 1081 1081 1081 1082 1082 1082 1082 1083 1083 1083 1083 1084 1084 1084 1084 1085 1085 1085 1085 1086 1086 1086 1086 1087 1087 1087 1087 1088 1088 1088 1088 1089 1089 1089 1089 1090 1090 1090 1090 1091 1091 1091 1091 1092 1092 1092 1092 1093 1093 1093 1093 1094 1094 1094 1094 1095 1095 1095 1095 1096 1096 1096 1096 1097 1097 1097 1097 1098 1098 1098 1098 1099 1099 1099 1099 1100 1100 1100 1100 1101 1101 1101 1101 1102 1102 1102 1102 1103 1103 1103 1103 1104 1104 1104 1104 1105 1105 1105 1105 1106 1106 1106 1106 1107 1107 1107 1107 1108 1108 1108 1108 1109 1109 1109 1109 1110 1110 1110 1110 1111 1111 1111 1111 1112 1112 1112 1112 1113 1113 1113 1113 1114 1114 1114 1114 1115 1115 1115 1115 1116 1116 1116 1116 1117 1117 1117 1117 1118 1118 1118 1118 1119 1119 1119 1119 1120 1120 1120 1120 1121 1121 1121 1121 1122 1122 1122 1122 1123 1123 1123 1123 1124 1124 1124 1124 1125 1125 1125 1125 1126 1126 1126 1126 -1 -1 -1 -1 1127 1127 1127 1127 1128 1128 1128 1128 1129 1129 1129 1129 1130 1130 1130 1130 1131 1131 1131 1131 1132 1132 1132 1132 1133 1133 1133 1133 1134 1134 1134 1134 -1 -1 -1 -1 1135 1135 1135 1135 1136 1136 1136 1136 -1 -1 -1 -1 -1 -1 -1 -1 -1 -1 -1 -1 -1 -1 -1 -1 1137 1137 1137 1137 1138 1138 1138 1138 -1 -1 -1 -1 -1 -1 -1 -1 -1 -1 -1 -1 -1 -1 -1 -1 1139 1139 1139 1139 1140 1140 1140 1140 1141 1141 1141 1141 -1 -1 -1 -1 -1 -1 -1 -1 -1 -1 -1 -1 -1 -1 -1 -1 -1 -1 -1 -1 1142 1142 1142 1142 1143 1143 1143 1143 -1 -1 -1 -1 -1 -1 -1 -1 -1 -1 -1 -1 -1 -1 -1 -1 1144 1144 1144 1144 1145 1145 1145 1145 1146 1146 1146 1146 1147 1147 1147 1147 1148 1148 1148 1148 -1 -1 -1 -1 1149 1149 1149 1149 -1 -1 -1 -1 -1 -1 -1 -1 -1 -1 -1 -1 -1 -1 -1 -1 -1 -1 -1 -1 1150 1150 1150 1150 1151 1151 1151 1151 1152 1152 1152 1152 1153 1153 1153 1153 1154 1154 1154 1154 1155 1155 1155 1155 1156 1156 1156 1156 1157 1157 1157 1157 1158 115