# vtk DataFile Version 3.0
d-2__ created by libgimli-v1.5.0-1-g5991b6ac
ASCII
DATASET UNSTRUCTURED_GRID
POINTS 7649 double
-2.5096613317338	17.62	0
-2.5096613317338	-5.88	0
61.259661331734	-5.88	0
61.259661331734	19.27	0
-237.50966133173	17.62	0
-237.50966133173	-240.88	0
296.25966133173	19.27	0
296.25966133173	-239.23	0
0	17.62	0
0.625	17.675	0
1.25	17.73	0
1.875	17.69	0
2.5	17.65	0
3.125	17.66	0
3.75	17.67	0
4.375	17.745	0
5	17.82	0
5.625	17.79	0
6.25	17.76	0
6.875	17.8	0
7.5	17.84	0
8.125	17.865	0
8.75	17.89	0
9.375	17.905	0
10	17.92	0
10.625	17.89	0
11.25	17.86	0
11.875	17.825	0
12.5	17.79	0
13.125	17.775	0
13.75	17.76	0
14.375	17.74	0
15	17.72	0
15.625	17.59	0
16.25	17.46	0
16.875	17.435	0
17.5	17.41	0
18.125	17.405	0
18.75	17.4	0
19.375	17.475	0
20	17.55	0
20.625	17.625	0
21.25	17.7	0
21.875	17.83	0
22.5	17.96	0
23.125	18.155	0
23.75	18.35	0
24.375	18.555	0
25	18.76	0
25.625	18.76	0
26.25	18.76	0
26.875	18.96	0
27.5	19.16	0
28.125	19.185	0
28.75	19.21	0
29.375	19.205	0
30	19.2	0
30.625	19.185	0
31.25	19.17	0
31.875	19.195	0
32.5	19.22	0
33.125	19.23	0
33.75	19.24	0
34.375	19.255	0
35	19.27	0
35.625	19.265	0
36.25	19.26	0
36.875	19.24	0
37.5	19.22	0
38.125	19.205	0
38.75	19.19	0
39.375	19.2	0
40	19.21	0
40.625	19.205	0
41.25	19.2	0
41.875	19.175	0
42.5	19.15	0
43.125	19.165	0
43.75	19.18	0
44.375	19.145	0
45	19.11	0
45.625	19.1	0
46.25	19.09	0
46.875	19.1	0
47.5	19.11	0
48.125	19.1	0
48.75	19.09	0
49.375	19.1	0
50	19.11	0
50.625	19.105	0
51.25	19.1	0
51.875	19.165	0
52.5	19.23	0
53.125	19.21	0
53.75	19.19	0
54.375	19.175	0
55	19.16	0
55.625	19.18	0
56.25	19.2	0
56.875	19.17	0
57.5	19.14	0
58.125	19.205	0
58.75	19.27	0
34.063635672841	16.508922452754	0
2.3634625876548	15.916436614015	0
16.521086953479	16.412173836985	0
6.628760874433	16.744673836985	0
22.317186876725	17.271505400362	0
35.132504032576	17.368998494226	0
45.920934781392	18.059673836985	0
51.670173920954	18.097173836985	0
57.879974780738	18.523704031367	0
37.154369562784	18.194673836985	0
24.731949932365	17.559914610588	0
21.003716853865	17.110692884462	0
3.4540652186082	16.629673836985	0
-2.5096613317338	9.62	0
15.782557954633	16.780086320349	0
20.39159791499	16.928350708414	0
17.161134028337	16.763350708414	0
5.9028041893329	17.052170611101	0
11.504521734871	16.807173836985	0
8.4789130465206	16.842173836985	0
7.2296855546615	17.160850708414	0
27.354820606135	18.537123105827	0
18.145283734032	16.202501618911	0
24.240426468065	17.910041255899	0
33.862410437072	18.109301783242	0
32.821328913849	18.673192884462	0
25.3125	17.724673836985	0
48.420934781392	18.059673836985	0
46.573315549763	18.419028139803	0
45.301953611335	18.445850708414	0
42.146086953479	18.127173836985	0
53.404369562784	18.164673836985	0
52.256051526325	18.538350708414	0
50.931697577305	18.377197163113	0
57.161483467005	18.612988895931	0
61.259661331734	3.27	0
39.079065218608	18.159673836985	0
37.796578579505	18.549107479392	0
36.541407222669	18.590850708414	0
29.058295099301	18.681887412593	0
21.777847841907	16.729673836985	0
4.1480584995563	16.994512503698	0
2.8230463886654	16.995850708414	0
0.98939341148898	17.112802142171	0
15.194126587103	17.085897053382	0
32.208563159747	18.680921006335	0
17.807932159736	16.83651996705	0
5.2854246954931	17.240931156107	0
10.90604415162	17.219669825412	0
13.412652172088	16.732173836985	0
12.150587639671	17.148350708414	0
9.7123478279124	16.877173836985	0
9.0781329402309	17.24612749038	0
7.8340531753802	17.313670615496	0
28.463865971663	18.538350708414	0
27.853913046521	18.137173836985	0
34.236564643586	17.609928081554	0
19.137868168984	16.809431925137	0
29.375	-5.88	0
35.618580512248	18.159241564871	0
49.704065218608	18.069673836985	0
47.801953611335	18.445850708414	0
44.655303866442	18.552569043606	0
43.462347827912	18.137173836985	0
41.536134028337	18.528350708414	0
54.662652172088	18.132173836985	0
50.307983084232	18.542885528953	0
56.535119652833	18.614576100678	0
40.304217390696	18.172173836985	0
38.424239825422	18.64499272593	0
35.933192052896	18.724006611944	0
23.018154578975	17.398350708414	0
25.9375	18.100850708414	0
2.1490913597893	17.069864996708	0
23.089214722719	16.078014803834	0
26.735808555883	18.318410762866	0
5.2814284731495	16.123848255634	0
10.286042751459	17.353807322065	0
14.981760106325	15.958242262959	0
14.041541199235	17.095037476092	0
12.798791927387	17.211330307793	0
7.7223104260154	16.484110021322	0
27.238601879688	17.880714283255	0
34.703319582998	18.603350708414	0
18.433163687609	16.860460951078	0
33.448046388665	18.575850708414	0
36.016723972686	17.649906935364	0
28.932867260839	17.898698007069	0
33.000589870511	17.761160960058	0
49.073046388665	18.435850708414	0
47.196042547669	18.571090770684	0
44.032133915629	18.620248493375	0
44.801847483692	17.428020437299	0
42.828319582998	18.498350708414	0
40.933226202744	18.668275342974	0
55.334550522342	18.480921176807	0
54.046680417002	18.523350708414	0
50.433925634348	17.760187194865	0
39.697853100236	18.55793123522	0
38.244658106366	17.718261787163	0
29.679217390696	18.167173836985	0
0.36030641716934	17.104245259439	0
32.508147568497	18.13800378047	0
10.443336151077	16.580905063618	0
12.562522173445	16.275844098068	0
27.971088320275	16.989667661053	0
35.311910493199	18.728357967131	0
20.977424675086	16.08034874936	0
30.721390802056	17.508110020171	0
31.403094049162	17.235678658658	0
47.291535178501	17.504765816872	0
44.272523487924	17.930865084159	0
41.062703349298	17.857298846785	0
58.49471838553	18.687323216058	0
22.77833784369	16.723363660749	0
23.760521762861	17.217173836985	0
19.101009823675	15.885190978287	0
52.560898511368	17.523909900736	0
61.259661331734	11.27	0
26.293033492583	16.578341031907	0
9.1041001274252	16.56119353724	0
9.7821315294938	15.999428661955	0
8.4460919716802	15.933128897924	0
6.0145349892716	16.305262072371	0
4.2512224979755	15.955801095946	0
15.824188624148	15.938454421192	0
14.131694374413	16.212386191589	0
31.584158827771	18.641029305736	0
49.065374514651	17.695836112838	0
42.807315454291	17.724387847347	0
54.024723630425	17.808213759637	0
18.66070554113	15.071734154462	0
25.295152226482	16.680600345446	0
46.560776806103	17.669939973576	0
34.075743370773	18.695692884462	0
56.845672320557	17.576197147299	0
55.576308939535	17.193533201448	0
5.9484976844905	15.000148193733	0
6.9462077897862	15.651935272194	0
32.130120349399	17.133840931784	0
32.987408196982	16.861859914247	0
49.773615597974	17.218338110656	0
48.243833681375	16.993343466149	0
43.704212335686	16.802605990281	0
41.869327661045	16.928693784778	0
53.352843696566	17.356965549339	0
30.644290239605	16.326055267321	0
45.748947668989	17.057221216512	0
54.704764831024	17.259176313933	0
52.680324136338	16.128563213183	0
36.039944976266	16.044723054225	0
46.709478499334	16.628735062659	0
40.161863065305	16.758287770332	0
11.075962211195	15.194866952655	0
30.939548204859	18.603850929787	0
13.331693722697	15.86294774386	0
19.811739139562	16.477173836985	0
60.004830665867	19.27	0
58.444742092555	17.638437277393	0
59.377415332933	18.647857368372	0
57.44514288655	17.960090459474	0
61.259661331734	15.27	0
31.299915118828	17.962515828996	0
51.00135546942	16.395444642585	0
55.031797634436	15.782622889268	0
26.514602747596	17.556671780517	0
12.364945597807	14.984904105272	0
57.670885951624	16.947580400106	0
17.605739570508	15.728500093528	0
61.259661331734	17.27	0
60.473206984494	18.17021648389	0
-1.2548306658669	17.62	0
0.68902457763418	16.066427342354	0
17.50134122556	14.385123408207	0
4.9123092563591	15.14487736914	0
22.673567298039	14.730080859938	0
44.829470884049	16.103629078213	0
15.377423191682	14.860557287337	0
29.675061702402	17.007079479913	0
27.428780062672	15.696824783104	0
27.165235113908	17.073808811083	0
56.534494971571	16.311744570292	0
59.202233542016	16.011099224165	0
3.3132125435106	15.654617576598	0
2.4046286065203	14.212245531114	0
-2.5096613317338	13.62	0
14.213028722943	14.935704502784	0
39.120244698418	17.072480217397	0
45.864596505579	16.025622755204	0
22.274033348245	16.082878450752	0
31.04546327554	14.650667297692	0
33.598534211554	17.521739541018	0
5.1906564274649	13.356043998304	0
-0.62741533293346	16.797955003268	0
16.669166021298	15.444861282639	0
47.286106224289	14.927613416458	0
20.163897729664	14.783984370433	0
30.296877561236	18.541565051497	0
31.638224452009	16.268226830201	0
-2.5096613317338	15.62	0
24.853633332851	18.150995936431	0
-1.7892518180577	16.561654025128	0
45.217814515466	14.349917695945	0
29.180918704247	15.273607393054	0
25.624698071182	14.976458556872	0
32.985033627033	15.037256794879	0
37.731225651191	16.105646190117	0
14.670742952144	12.969286002971	0
-0.89304708703727	15.129614800889	0
29.729529845251	16.054386642686	0
28.828364093893	16.480767916477	0
30.178006022797	15.15613756889	0
39.204947615351	15.469593996825	0
14.738655011908	14.021572854572	0
29.774412094932	13.466440530792	0
13.257514551501	13.778099684031	0
16.226075968709	13.397243421139	0
29.584044153345	14.404959909776	0
27.993082038616	14.1944855441	0
28.858738257858	13.769273217886	0
27.721536634372	12.547900929861	0
28.958787763626	12.536016679839	0
9.2239387590715	13.753100045495	0
51.921009807952	16.766358715122	0
51.769870650412	15.815532310969	0
50.424975605233	14.832426279089	0
52.743639926006	14.463861659377	0
53.900660885203	16.258754349098	0
60.021859066455	16.982263774205	0
57.78392240502	15.412137772798	0
24.252054329786	16.160133107754	0
23.739821920642	15.139343022921	0
23.884646329129	13.168437849883	0
24.702754279337	15.295057757576	0
24.38641208217	14.196081701699	0
23.398719169507	14.04202064234	0
21.896356441758	13.184820823634	0
22.890590437335	13.187436957931	0
22.397807123199	11.539158542335	0
23.367913031253	12.146929991074	0
25.804571348804	12.867319671456	0
23.889646768447	10.236042622699	0
24.890959113284	13.313407419204	0
23.340391407436	11.112746969131	0
24.53828504156	12.196342841213	0
25.755473226249	13.925371937331	0
22.162739172596	9.7645412832258	0
24.387936975	11.158627929714	0
26.886370649243	13.447685071087	0
[...]
CELL_DATA 15032
SCALARS Marker double 1
LOOKUP_TABLE default
-1 -1 -1 -1 0 0 0 0 -1 -1 -1 -1 1 1 1 1 2 2 2 2 3 3 3 3 4 4 4 4 5 5 5 5 6 6 6 6 7 7 7 7 -1 -1 -1 -1 8 8 8 8 9 9 9 9 10 10 10 10 11 11 11 11 12 12 12 12 13 13 13 13 14 14 14 14 15 15 15 15 16 16 16 16 17 17 17 17 18 18 18 18 19 19 19 19 20 20 20 20 21 21 21 21 22 22 22 22 23 23 23 23 24 24 24 24 25 25 25 25 26 26 26 26 27 27 27 27 28 28 28 28 29 29 29 29 30 30 30 30 31 31 31 31 32 32 32 32 33 33 33 33 34 34 34 34 35 35 35 35 36 36 36 36 37 37 37 37 38 38 38 38 39 39 39 39 40 40 40 40 41 41 41 41 42 42 42 42 43 43 43 43 44 44 44 44 45 45 45 45 46 46 46 46 47 47 47 47 48 48 48 48 49 49 49 49 50 50 50 50 51 51 51 51 52 52 52 52 53 53 53 53 54 54 54 54 55 55 55 55 56 56 56 56 57 57 57 57 58 58 58 58 59 59 59 59 60 60 60 60 61 61 61 61 62 62 62 62 63 63 63 63 64 64 64 64 65 65 65 65 66 66 66 66 67 67 67 67 68 68 68 68 69 69 69 69 70 70 70 70 71 71 71 71 72 72 72 72 73 73 73 73 74 74 74 74 75 75 75 75 76 76 76 76 77 77 77 77 78 78 78 78 79 79 79 79 80 80 80 80 81 81 81 81 82 82 82 82 83 83 83 83 84 84 84 84 85 85 85 85 86 86 86 86 87 87 87 87 88 88 88 88 89 89 89 89 90 90 90 90 91 91 91 91 92 92 92 92 93 93 93 93 94 94 94 94 -1 -1 -1 -1 95 95 95 95 96 96 96 96 97 97 97 97 98 98 98 98 99 99 99 99 100 100 100 100 101 101 101 101 -1 -1 -1 -1 102 102 102 102 103 103 103 103 104 104 104 104 105 105 105 105 106 106 106 106 107 107 107 107 108 108 108 108 109 109 109 109 110 110 110 110 111 111 111 111 112 112 112 112 113 113 113 113 114 114 114 114 115 115 115 115 116 116 116 116 117 117 117 117 118 118 118 118 119 119 119 119 120 120 120 120 121 121 121 121 122 122 122 122 123 123 123 123 124 124 124 124 125 125 125 125 126 126 126 126 127 127 127 127 128 128 128 128 129 129 129 129 130 130 130 130 131 131 131 131 132 132 132 132 133 133 133 133 134 134 134 134 135 135 135 135 136 136 136 136 137 137 137 137 138 138 138 138 139 139 139 139 140 140 140 140 -1 -1 -1 -1 141 141 141 141 142 142 142 142 143 143 143 143 144 144 144 144 145 145 145 145 146 146 146 146 147 147 147 147 148 148 148 148 149 149 149 149 150 150 150 150 151 151 151 151 152 152 152 152 153 153 153 153 154 154 154 154 155 155 155 155 156 156 156 156 157 157 157 157 158 158 158 158 159 159 159 159 160 160 160 160 161 161 161 161 162 162 162 162 163 163 163 163 164 164 164 164 165 165 165 165 166 166 166 166 167 167 167 167 168 168 168 168 169 169 169 169 170 170 170 170 171 171 171 171 172 172 172 172 173 173 173 173 174 174 174 174 175 175 175 175 176 176 176 176 177 177 177 177 178 178 178 178 179 179 179 179 180 180 180 180 181 181 181 181 182 182 182 182 183 183 183 183 184 184 184 184 185 185 185 185 186 186 186 186 187 187 187 187 -1 -1 -1 -1 188 188 188 188 -1 -1 -1 -1 189 189 189 189 190 190 190 190 191 191 191 191 192 192 192 192 -1 -1 -1 -1 193 193 193 193 194 194 194 194 195 195 195 195 196 196 196 196 197 197 197 197 198 198 198 198 199 199 199 199 200 200 200 200 201 201 201 201 202 202 202 202 203 203 203 203 204 204 204 204 205 205 205 205 206 206 206 206 207 207 207 207 208 208 208 208 209 209 209 209 210 210 210 210 211 211 211 211 212 212 212 212 213 213 213 213 214 214 214 214 215 215 215 215 216 216 216 216 217 217 217 217 218 218 218 218 219 219 219 219 220 220 220 220 221 221 221 221 222 222 222 222 223 223 223 223 224 224 224 224 -1 -1 -1 -1 225 225 225 225 226 226 226 226 227 227 227 227 228 228 228 228 229 229 229 229 230 230 230 230 231 231 231 231 232 232 232 232 233 233 233 233 234 234 234 234 235 235 235 235 236 236 236 236 237 237 237 237 238 238 238 238 239 239 239 239 240 240 240 240 241 241 241 241 242 242 242 242 243 243 243 243 244 244 244 244 245 245 245 245 246 246 246 246 247 247 247 247 248 248 248 248 249 249 249 249 250 250 250 250 251 251 251 251 252 252 252 252 253 253 253 253 254 254 254 254 255 255 255 255 256 256 256 256 257 257 257 257 258 258 258 258 259 259 259 259 260 260 260 260 261 261 261 261 262 262 262 262 263 263 263 263 264 264 264 264 265 265 265 265 266 266 266 266 267 267 267 267 268 268 268 268 269 269 269 269 270 270 270 270 271 271 271 271 272 272 272 272 273 273 273 273 274 274 274 274 275 275 275 275 276 276 276 276 277 277 277 277 278 278 278 278 279 279 279 279 280 280 280 280 281 281 281 281 282 282 282 282 283 283 283 283 284 284 284 284 285 285 285 285 286 286 286 286 287 287 287 287 288 288 288 288 289 289 289 289 290 290 290 290 291 291 291 291 292 292 292 292 293 293 293 293 294 294 294 294 295 295 295 295 296 296 296 296 297 297 297 297 298 298 298 298 299 299 299 299 300 300 300 300 301 301 301 301 302 302 302 302 303 303 303 303 304 304 304 304 305 305 305 305 306 306 306 306 307 307 307 307 308 308 308 308 309 309 309 309 310 310 310 310 311 311 311 311 312 312 312 312 313 313 313 313 314 314 314 314 315 315 315 315 316 316 316 316 317 317 317 317 318 318 318 318 319 319 319 319 -1 -1 -1 -1 320 320 320 320 321 321 321 321 322 322 322 322 323 323 323 323 324 324 324 324 325 325 325 325 326 326 326 326 327 327 327 327 328 328 328 328 329 329 329 329 330 330 330 330 331 331 331 331 332 332 332 332 333 333 333 333 334 334 334 334 335 335 335 335 336 336 336 336 337 337 337 337 338 338 338 338 339 339 339 339 340 340 340 340 341 341 341 341 342 342 342 342 343 343 343 343 344 344 344 344 345 345 345 345 346 346 346 346 347 347 347 347 348 348 348 348 349 349 349 349 350 350 350 350 351 351 351 351 352 352 352 352 353 353 353 353 354 354 354 354 355 355 355 355 356 356 356 356 357 357 357 357 358 358 358 358 359 359 359 359 360 360 360 360 361 361 361 361 362 362 362 362 363 363 363 363 364 364 364 364 365 365 365 365 366 366 366 366 367 367 367 367 368 368 368 368 369 369 369 369 370 370 370 370 371 371 371 371 372 372 372 372 373 373 373 373 374 374 374 374 375 375 375 375 376 376 376 376 377 377 377 377 378 378 378 378 379 379 379 379 380 380 380 380 381 381 381 381 382 382 382 382 383 383 383 383 384 384 384 384 385 385 385 385 386 386 386 386 387 387 387 387 388 388 388 388 389 389 389 389 390 390 390 390 391 391 391 391 392 392 392 392 393 393 393 393 394 394 394 394 395 395 395 395 396 396 396 396 397 397 397 397 398 398 398 398 399 399 399 399 400 400 400 400 401 401 401 401 402 402 402 402 403 403 403 403 404 404 404 404 405 405 405 405 406 406 406 406 407 407 407 407 408 408 408 408 409 409 409 409 410 410 410 410 411 411 411 411 412 412 412 412 413 413 413 413 414 414 414 414 415 415 415 415 416 416 416 416 417 417 417 417 418 418 418 418 419 419 419 419 420 420 420 420 421 421 421 421 422 422 422 422 423 423 423 423 424 424 424 424 425 425 425 425 426 426 426 426 427 427 427 427 428 428 428 428 429 429 429 429 -1 -1 -1 -1 430 430 430 430 431 431 431 431 432 432 432 432 -1 -1 -1 -1 433 433 433 433 434 434 434 434 435 435 435 435 436 436 436 436 437 437 437 437 438 438 438 438 439 439 439 439 440 440 440 440 441 441 441 441 442 442 442 442 443 443 443 443 444 444 444 444 445 445 445 445 446 446 446 446 447 447 447 447 448 448 448 448 449 449 449 449 450 450 450 450 451 451 451 451 452 452 452 452 453 453 453 453 454 454 454 454 455 455 455 455 456 456 456 456 457 457 457 457 458 458 458 458 459 459 459 459 460 460 460 460 461 461 461 461 462 462 462 462 463 463 463 463 464 464 464 464 465 465 465 465 466 466 466 466 467 467 467 467 468 468 468 468 469 469 469 469 470 470 470 470 471 471 471 471 472 472 472 472 473 473 473 473 474 474 474 474 475 475 475 475 476 476 476 476 477 477 477 477 478 478 478 478 479 479 479 479 480 480 480 480 481 481 481 481 482 482 482 482 483 483 483 483 484 484 484 484 485 485 485 485 486 486 486 486 -1 -1 -1 -1 487 487 487 487 488 488 488 488 489 489 489 489 490 490 490 490 491 491 491 491 492 492 492 492 493 493 493 493 494 494 494 494 495 495 495 495 496 496 496 496 497 497 497 497 498 498 498 498 499 499 499 499 500 500 500 500 501 501 501 501 502 502 502 502 503 503 503 503 504 504 504 504 505 505 505 505 506 506 506 506 507 507 507 507 508 508 508 508 509 509 509 509 510 510 510 510 511 511 511 511 512 512 512 512 513 513 513 513 514 514 514 514 515 515 515 515 516 516 516 516 517 517 517 517 518 518 518 518 519 519 519 519 520 520 520 520 521 521 521 521 522 522 522 522 523 523 523 523 524 524 524 524 525 525 525 525 526 526 526 526 527 527 527 527 528 528 528 528 529 529 529 529 530 530 530 530 531 531 531 531 532 532 532 532 533 533 533 533 534 534 534 534 535 535 535 535 536 536 536 536 537 537 537 537 538 538 538 538 539 539 539 539 540 540 540 540 541 541 541 541 542 542 542 542 543 543 543 543 544 544 544 544 545 545 545 545 546 546 546 546 547 547 547 547 548 548 548 548 549 549 549 549 550 550 550 550 551 551 551 551 552 552 552 552 553 553 553 553 554 554 554 554 555 555 555 555 556 556 556 556 557 557 557 557 558 558 558 558 559 559 559 559 560 560 560 560 561 561 561 561 562 562 562 562 563 563 563 563 564 564 564 564 565 565 565 565 566 566 566 566 567 567 567 567 568 568 568 568 569 569 569 569 570 570 570 570 571 571 571 571 572 572 572 572 573 573 573 573 574 574 574 574 575 575 575 575 576 576 576 576 577 577 577 577 578 578 578 578 579 579 579 579 580 580 580 580 581 581 581 581 582 582 582 582 583 583 583 583 584 584 584 584 585 585 585 585 586 586 586 586 587 587 587 587 588 588 588 588 589 589 589 589 590 590 590 590 591 591 591 591 592 592 592 592 593 593 593 593 594 594 594 594 595 595 595 595 596 596 596 596 597 597 597 597 598 598 598 598 599 599 599 599 600 600 600 600 601 601 601 601 602 602 602 602 603 603 603 603 604 604 604 604 605 605 605 605 606 606 606 606 607 607 607 607 608 608 608 608 609 609 609 609 610 610 610 610 611 611 611 611 612 612 612 612 613 613 613 613 614 614 614 614 615 615 615 615 616 616 616 616 617 617 617 617 618 618 618 618 619 619 619 619 620 620 620 620 621 621 621 621 622 622 622 622 623 623 623 623 624 624 624 624 -1 -1 -1 -1 625 625 625 625 626 626 626 626 627 627 627 627 628 628 628 628 629 629 629 629 630 630 630 630 631 631 631 631 632 632 632 632 633 633 633 633 634 634 634 634 635 635 635 635 636 636 636 636 637 637 637 637 638 638 638 638 639 639 639 639 640 640 640 640 641 641 641 641 642 642 642 642 643 643 643 643 644 644 644 644 645 645 645 645 646 646 646 646 647 647 647 647 648 648 648 648 649 649 649 649 650 650 650 650 651 651 651 651 652 652 652 652 653 653 653 653 654 654 654 654 655 655 655 655 656 656 656 656 657 657 657 657 658 658 658 658 659 659 659 659 660 660 660 660 661 661 661 661 662 662 662 662 663 663 663 663 664 664 664 664 665 665 665 665 666 666 666 666 667 667 667 667 668 668 668 668 669 669 669 669 670 670 670 670 671 671 671 671 672 672 672 672 673 673 673 673 674 674 674 674 675 675 675 675 676 676 676 676 677 677 677 677 678 678 678 678 679 679 679 679 680 680 680 680 681 681 681 681 682 682 682 682 683 683 683 683 684 684 684 684 685 685 685 685 686 686 686 686 687 687 687 687 688 688 688 688 689 689 689 689 690 690 690 690 691 691 691 691 692 692 692 692 693 693 693 693 694 694 694 694 695 695 695 695 696 696 696 696 697 697 697 697 698 698 698 698 699 699 699 699 700 700 700 700 701 701 701 701 702 702 702 702 703 703 703 703 704 704 704 704 705 705 705 705 706 706 706 706 707 707 707 707 708 708 708 708 709 709 709 709 710 710 710 710 711 711 711 711 712 712 712 712 713 713 713 713 714 714 714 714 715 715 715 715 716 716 716 716 717 717 717 717 718 718 718 718 719 719 719 719 720 720 720 720 721 721 721 721 722 722 722 722 723 723 723 723 724 724 724 724 725 725 725 725 726 726 726 726 727 727 727 727 728 728 728 728 729 729 729 729 730 730 730 730 731 731 731 731 732 732 732 732 733 733 733 733 -1 -1 -1 -1 734 734 734 734 735 735 735 735 736 736 736 736 737 737 737 737 738 738 738 738 739 739 739 739 740 740 740 740 741 741 741 741 742 742 742 742 743 743 743 743 744 744 744 744 745 745 745 745 746 746 746 746 747 747 747 747 748 748 748 748 749 749 749 749 750 750 750 750 751 751 751 751 752 752 752 752 753 753 753 753 754 754 754 754 755 755 755 755 756 756 756 756 757 757 757 757 758 758 758 758 759 759 759 759 760 760 760 760 761 761 761 761 762 762 762 762 763 763 763 763 764 764 764 764 765 765 765 765 766 766 766 766 767 767 767 767 768 768 768 768 769 769 769 769 770 770 770 770 771 771 771 771 772 772 772 772 773 773 773 773 774 774 774 774 775 775 775 775 776 776 776 776 777 777 777 777 778 778 778 778 779 779 779 779 780 780 780 780 781 781 781 781 782 782 782 782 783 783 783 783 784 784 784 784 785 785 785 785 786 786 786 786 787 787 787 787 788 788 788 788 789 789 789 789 790 790 790 790 791 791 791 791 792 792 792 792 793 793 793 793 794 794 794 794 795 795 795 795 796 796 796 796 797 797 797 797 798 798 798 798 799 799 799 799 800 800 800 800 801 801 801 801 802 802 802 802 803 803 803 803 804 804 804 804 805 805 805 805 806 806 806 806 807 807 807 807 808 808 808 808 809 809 809 809 810 810 810 810 811 811 811 811 812 812 812 812 813 813 813 813 814 814 814 814 815 815 815 815 816 816 816 816 817 817 817 817 818 818 818 818 819 819 819 819 820 820 820 820 821 821 821 821 822 822 822 822 823 823 823 823 824 824 824 824 825 825 825 825 826 826 826 826 827 827 827 827 828 828 828 828 829 829 829 829 830 830 830 830 831 831 831 831 832 832 832 832 833 833 833 833 834 834 834 834 835 835 835 835 836 836 836 836 837 837 837 837 838 838 838 838 839 839 839 839 -1 -1 -1 -1 840 840 840 840 841 841 841 841 842 842 842 842 843 843 843 843 844 844 844 844 845 845 845 845 846 846 846 846 847 847 847 847 848 848 848 848 849 849 849 849 850 850 850 850 851 851 851 851 852 852 852 852 853 853 853 853 854 854 854 854 855 855 855 855 856 856 856 856 857 857 857 857 858 858 858 858 859 859 859 859 860 860 860 860 861 861 861 861 862 862 862 862 863 863 863 863 864 864 864 864 865 865 865 865 866 866 866 866 867 867 867 867 868 868 868 868 869 869 869 869 870 870 870 870 871 871 871 871 872 872 872 872 873 873 873 873 874 874 874 874 875 875 875 875 876 876 876 876 877 877 877 877 878 878 878 878 879 879 879 879 880 880 880 880 881 881 881 881 882 882 882 882 883 883 883 883 884 884 884 884 885 885 885 885 886 886 886 886 887 887 887 887 888 888 888 888 889 889 889 889 890 890 890 890 891 891 891 891 892 892 892 892 893 893 893 893 894 894 894 894 895 895 895 895 896 896 896 896 897 897 897 897 898 898 898 898 899 899 899 899 900 900 900 900 901 901 901 901 902 902 902 902 903 903 903 903 904 904 904 904 905 905 905 905 906 906 906 906 907 907 907 907 908 908 908 908 909 909 909 909 910 910 910 910 911 911 911 911 912 912 912 912 913 913 913 913 914 914 914 914 915 915 915 915 916 916 916 916 917 917 917 917 918 918 918 918 919 919 919 919 920 920 920 920 921 921 921 921 922 922 922 922 923 923 923 923 924 924 924 924 925 925 925 925 926 926 926 926 927 927 927 927 928 928 928 928 929 929 929 929 -1 -1 -1 -1 930 930 930 930 931 931 931 931 932 932 932 932 933 933 933 933 934 934 934 934 935 935 935 935 936 936 936 936 937 937 937 937 938 938 938 938 939 939 939 939 940 940 940 940 941 941 941 941 942 942 942 942 943 943 943 943 944 944 944 944 945 945 945 945 946 946 946 946 947 947 947 947 948 948 948 948 949 949 949 949 950 950 950 950 951 951 951 951 952 952 952 952 953 953 953 953 954 954 954 954 955 955 955 955 956 956 956 956 957 957 957 957 958 958 958 958 959 959 959 959 960 960 960 960 961 961 961 961 962 962 962 962 963 963 963 963 964 964 964 964 965 965 965 965 966 966 966 966 967 967 967 967 968 968 968 968 969 969 969 969 970 970 970 970 971 971 971 971 972 972 972 972 973 973 973 973 974 974 974 974 975 975 975 975 976 976 976 976 977 977 977 977 978 978 978 978 979 979 979 979 980 980 980 980 981 981 981 981 982 982 982 982 983 983 983 983 984 984 984 984 985 985 985 985 986 986 986 986 987 987 987 987 988 988 988 988 989 989 989 989 990 990 990 990 991 991 991 991 992 992 992 992 993 993 993 993 994 994 994 994 995 995 995 995 996 996 996 996 997 997 997 997 998 998 998 998 999 999 999 999 1000 1000 1000 1000 1001 1001 1001 1001 1002 1002 1002 1002 1003 1003 1003 1003 1004 1004 1004 1004 1005 1005 1005 1005 1006 1006 1006 1006 1007 1007 1007 1007 1008 1008 1008 1008 1009 1009 1009 1009 1010 1010 1010 1010 1011 1011 1011 1011 1012 1012 1012 1012 1013 1013 1013 1013 1014 1014 1014 1014 1015 1015 1015 1015 1016 1016 1016 1016 1017 1017 1017 1017 1018 1018 1018 1018 1019 1019 1019 1019 1020 1020 1020 1020 1021 1021 1021 1021 1022 1022 1022 1022 1023 1023 1023 1023 1024 1024 1024 1024 1025 1025 1025 1025 1026 1026 1026 1026 1027 1027 1027 1027 1028 1028 1028 1028 1029 1029 1029 1029 1030 1030 1030 1030 1031 1031 1031 1031 1032 1032 1032 1032 1033 1033 1033 1033 1034 1034 1034 1034 1035 1035 1035 1035 1036 1036 1036 1036 1037 1037 1037 1037 1038 1038 1038 1038 1039 1039 1039 1039 1040 1040 1040 1040 1041 1041 1041 1041 1042 1042 1042 1042 1043 1043 1043 1043 1044 1044 1044 1044 1045 1045 1045 1045 1046 1046 1046 1046 1047 1047 1047 1047 1048 1048 1048 1048 1049 1049 1049 1049 1050 1050 1050 1050 1051 1051 1051 1051 1052 1052 1052 1052 1053 1053 1053 1053 1054 1054 1054 1054 1055 1055 1055 1055 1056 1056 1056 1056 1057 1057 1057 1057 1058 1058 1058 1058 1059 1059 1059 1059 1060 1060 1060 1060 1061 1061 1061 1061 1062 1062 1062 1062 1063 1063 1063 1063 1064 1064 1064 1064 1065 1065 1065 1065 1066 1066 1066 1066 1067 1067 1067 1067 1068 1068 1068 1068 1069 1069 1069 1069 -1 -1 -1 -1 1070 1070 1070 1070 1071 1071 1071 1071 1072 1072 1072 1072 1073 1073 1073 1073 1074 1074 1074 1074 1075 1075 1075 1075 1076 1076 1076 1076 1077 1077 1077 1077 1078 1078 1078 1078 1079 1079 1079 1079 1080 1080 1080 1080 1081 1081 1081 1081 1082 1082 1082 1082 1083 1083 1083 1083 1084 1084 1084 1084 1085 1085 1085 1085 1086 1086 1086 1086 1087 1087 1087 1087 1088 1088 1088 1088 1089 1089 1089 1089 1090 1090 1090 1090 1091 1091 1091 1091 1092 1092 1092 1092 1093 1093 1093 1093 1094 1094 1094 1094 1095 1095 1095 1095 1096 1096 1096 1096 1097 1097 1097 1097 1098 1098 1098 1098 1099 1099 1099 1099 1100 1100 1100 1100 1101 1101 1101 1101 1102 1102 1102 1102 1103 1103 1103 1103 1104 1104 1104 1104 1105 1105 1105 1105 1106 1106 1106 1106 1107 1107 1107 1107 1108 1108 1108 1108 1109 1109 1109 1109 1110 1110 1110 1110 1111 1111 1111 1111 1112 1112 1112 1112 1113 1113 1113 1113 1114 1114 1114 1114 1115 1115 1115 1115 1116 1116 1116 1116 1117 1117 1117 1117 1118 1118 1118 1118 1119 1119 1119 1119 1120 1120 1120 1120 1121 1121 1121 1121 1122 1122 1122 1122 1123 1123 1123 1123 1124 1124 1124 1124 1125 1125 1125 1125 1126 1126 1126 1126 1127 1127 1127 1127 1128 1128 1128 1128 -1 -1 -1 -1 1129 1129 1129 1129 1130 1130 1130 1130 1131 1131 1131 1131 1132 1132 1132 1132 1133 1133 1133 1133 1134 1134 1134 1134 1135 1135 1135 1135 1136 1136 1136 1136 1137 1137 1137 1137 1138 1138 1138 1138 1139 1139 1139 1139 1140 1140 1140 1140 1141 1141 1141 1141 1142 1142 1142 1142 1143 1143 1143 1143 1144 1144 1144 1144 1145 1145 1145 1145 -1 -1 -1 -1 1146 1146 1146 1146 -1 -1 -1 -1 1147 1147 1147 1147 1148 1148 1148 1148 1149 1149 1149 1149 1150 1150 1150 1150 1151 1151 1151 1151 1152 1152 1152 1152 1153 1153 1153 1153 1154 1154 1154 1154 1155 1155 1155 1155 1156 1156 1156 1156 1157 1157 1157 1157 1158 1158 1158 1158 1159 1159 1159 1159 1160 1160 1160 1160 1161 1161 1161 1161 1162 1162 1162 1162 1163 1163 1163 1163 1164 1164 1164 1164 1165 1165 1165 1165 1166 1166 1166 1166 1167 1167 1167 1167 1168 1168 1168 1168 1169 1169 1169 1169 1170 1170 1170 1170 1171 1171 1171 1171 1172 1172 1172 1172 1173 1173 1173 1173 1174 1174 1174 1174 1175 1175 1175 1175 -1 -1 -1 -1 1176 1176 1176 1176 1177 1177 1177 1177 1178 1178 1178 1178 -1 -1 -1 -1 1179 1179 1179 1179 1180 1180 1180 1180 -1 -1 -1 -1 -1 -1 -1 -1 -1 -1 -1 -1 -1 -1 -1 -1 -1 -1 -1 -1 -1 -1 -1 -1 -1 -1 -1 -1 -1 -1 -1 -1 1181 1181 1181 1181 1182 1182 1182 1182 1183 1183 1183 1183 1184 1184 1184 1184 1185 1185 1185 1185 1186 1186 1186 1186 1187 1187 1187 1187 1188 1188 1188 1188 1189 1189 1189 1189 1190 1190 1190 1190 1191 1191 1191 1191 1192 1192 1192 1192 1193 1193 1193 1193 1194 1194 1194 1194 1195 1195 1195 1195 1196 1196 1196 1196 1197 1197 1197 1197 1198 1198 1198 1198 1199 1199 1199 