# vtk DataFile Version 3.0
d-2__ created by libgimli-v1.5.0-1-g5991b6ac
ASCII
DATASET UNSTRUCTURED_GRID
POINTS 7028 double
-10.000387192504	-2.524	0
-10.000387192504	-152.745	0
385.0003871925	-152.745	0
385.0003871925	-2.745	0
-1510.0003871925	-2.524	0
-1510.0003871925	-1652.524	0
1885.0003871925	-2.745	0
1885.0003871925	-1652.745	0
0	-2.524	0
1.25	-2.535	0
3.75	-2.557	0
5	-2.568	0
6.25	-2.58725	0
8.75	-2.62575	0
10	-2.645	0
11.25	-2.631	0
13.75	-2.603	0
15	-2.589	0
16.25	-2.58175	0
18.75	-2.56725	0
20	-2.56	0
21.25	-2.556	0
23.75	-2.548	0
25	-2.544	0
26.25	-2.49875	0
28.75	-2.40825	0
30	-2.363	0
31.25	-2.33425	0
33.75	-2.27675	0
35	-2.248	0
36.25	-2.195	0
38.75	-2.089	0
40	-2.036	0
41.25	-2.029	0
43.75	-2.015	0
45	-2.008	0
46.25	-1.97375	0
48.75	-1.90525	0
50	-1.871	0
51.25	-1.90425	0
53.75	-1.97075	0
55	-2.004	0
56.25	-2.00675	0
58.75	-2.01225	0
60	-2.015	0
61.25	-2.06225	0
63.75	-2.15675	0
65	-2.204	0
66.25	-2.29275	0
68.75	-2.47025	0
70	-2.559	0
71.25	-2.56775	0
73.75	-2.58525	0
75	-2.594	0
76.25	-2.72	0
78.75	-2.972	0
80	-3.098	0
81.25	-3.08875	0
83.75	-3.07025	0
85	-3.061	0
86.25	-3.1045	0
88.75	-3.1915	0
90	-3.235	0
91.25	-3.16125	0
93.75	-3.01375	0
95	-2.94	0
96.25	-2.93925	0
98.75	-2.93775	0
100	-2.937	0
101.25	-2.896	0
103.75	-2.814	0
105	-2.773	0
106.25	-2.3805	0
108.75	-1.5955	0
110	-1.203	0
111.25	-0.79975	0
113.75	0.00675	0
115	0.41	0
116.25	0.653875	0
118.75	1.141625	0
120	1.3855	0
121.25	1.6579	0
123.75	2.2027	0
125	2.4751	0
126.25	3.550225	0
128.75	5.700475	0
130	6.7756	0
131.25	7.328575	0
133.75	8.434525	0
135	8.9875	0
136.25	9.031275	0
138.75	9.118825	0
140	9.1626	0
141.25	9.19195	0
143.75	9.25065	0
145	9.28	0
146.25	9.28	0
148.75	9.28	0
150	9.28	0
151.25	9.28	0
153.75	9.28	0
155	9.28	0
156.25	9.28	0
158.75	9.28	0
160	9.28	0
161.25	9.28	0
163.75	9.28	0
165	9.28	0
166.25	9.28	0
168.75	9.28	0
170	9.28	0
171.25	9.28	0
173.75	9.28	0
175	9.28	0
176.25	9.28	0
178.75	9.28	0
180	9.28	0
181.25	9.28	0
183.75	9.28	0
185	9.28	0
186.25	9.28	0
188.75	9.28	0
190	9.28	0
191.25	9.28	0
193.75	9.28	0
195	9.28	0
196.25	9.28	0
198.75	9.28	0
200	9.28	0
201.25	9.27285	0
203.75	9.25855	0
205	9.2514	0
206.25	9.229725	0
208.75	9.186375	0
210	9.1647	0
211.25	9.14305	0
213.75	9.09975	0
215	9.0781	0
216.25	8.850025	0
218.75	8.393875	0
220	8.1658	0
221.25	7.520525	0
223.75	6.229975	0
225	5.5847	0
226.25	4.944825	0
228.75	3.665075	0
230	3.0252	0
231.25	2.727025	0
233.75	2.130675	0
235	1.8325	0
236.25	1.68175	0
238.75	1.38025	0
240	1.2295	0
241.25	1.008675	0
243.75	0.567025	0
245	0.3462	0
246.25	0.352675	0
248.75	0.365625	0
250	0.3721	0
251.25	0.525075	0
253.75	0.831025	0
255	0.984	0
256.25	0.785	0
258.75	0.387	0
260	0.188	0
261.25	0.141	0
263.75	0.047	0
265	0	0
266.25	0	0
268.75	0	0
270	0	0
271.25	-0.03125	0
273.75	-0.09375	0
275	-0.125	0
276.25	-0.1595	0
278.75	-0.2285	0
280	-0.263	0
281.25	-0.27225	0
283.75	-0.29075	0
285	-0.3	0
286.25	-0.31375	0
288.75	-0.34125	0
290	-0.355	0
291.25	-0.36575	0
293.75	-0.38725	0
295	-0.398	0
296.25	-0.405	0
298.75	-0.419	0
300	-0.426	0
301.25	-0.42975	0
303.75	-0.43725	0
305	-0.441	0
306.25	-0.44025	0
308.75	-0.43875	0
310	-0.438	0
311.25	-0.43425	0
313.75	-0.42675	0
315	-0.423	0
316.25	-0.50075	0
318.75	-0.65625	0
320	-0.734	0
321.25	-0.78375	0
323.75	-0.88325	0
325	-0.933	0
326.25	-0.9685	0
328.75	-1.0395	0
330	-1.075	0
331.25	-1.125	0
333.75	-1.225	0
335	-1.275	0
336.25	-1.3965	0
338.75	-1.6395	0
340	-1.761	0
341.25	-1.84325	0
343.75	-2.00775	0
345	-2.09	0
346.25	-2.1045	0
348.75	-2.1335	0
350	-2.148	0
351.25	-2.20575	0
353.75	-2.32125	0
355	-2.379	0
356.25	-2.412	0
358.75	-2.478	0
360	-2.511	0
361.25	-2.53675	0
363.75	-2.58825	0
365	-2.614	0
366.25	-2.62075	0
368.75	-2.63425	0
370	-2.641	0
371.25	-2.667	0
373.75	-2.719	0
375	-2.745	0
-10.000387192504	0	0
385.0003871925	0	0
51.874806403748	0.003375	0
327.50019359625	0	0
20.937209605622	0.0016875	0
82.812403201874	0.0050625	0
356.25029039438	0	0
36.406008004685	0.00253125	0
97.750000023802	0.0058772754591762	0
370.62533879344	0	0
44.140407204216	0.002953125	0
105.7500000119	0.0063136377295881	0
377.81286299297	0	0
48.007606803982	0.0031640625	0
302	0	0
5.4684112065589	0.00084375	0
67.343604802811	0.00421875	0
341.87524199532	0	0
28.671608805153	0.002109375	0
90.281201612838	0.0054698877295881	0
363.43781459391	0	0
40.273207604451	0.0027421875	0
109.75000000595	0.006531818864794	0
314.75009679813	0	0
286	0	0
302.5	-0.4335	0
13.20281040609	0.001265625	0
75.078004002342	0.004640625	0
349.06276619485	0	0
-2.2659879929726	0.000421875	0
59.609205603279	0.003796875	0
334.68771779578	0	0
294	0	0
321.12514519719	0	0
111.75000000298	0.006640909432397	0
308.37504839906	0	0
278	0	0
324.31266939672	0	0
298	0	0
338.28147989555	0	0
345.46900409508	0	0
63.476405203045	0.0040078125	0
274	0	0
282	0	0
300	0	0
284	0	0
301	0	0
285	0	0
55.742006003514	0.0035859375	0
331.09395569602	0	0
290	0	0
311.56257259859	0	0
305.18752419953	0	0
317.93762099766	0	0
112.79829676431	-0.30026946383429	0
307.5	-0.4395	0
277.5	-0.194	0
296	0	0
297.5	-0.412	0
280	0	0
276	0	0
272	0	0
274.375	-0.109375	0
282.5	-0.2815	0
299	0	0
283	0	0
306.7812862993	0	0
313.15633469836	0	0
292	0	0
316.34385889789	0	0
319.53138309742	0	0
275	0	0
277	0	0
271	0	0
273	0	0
281.875	-0.276875	0
307.57816734918	0	0
313.95321574824	0	0
291	0	0
271.5	0	0
329.29707464613	0	0
288	0	0
309.96881049883	0	0
303.59376209977	0	0
317.5	-0.5785	0
112.75000000149	0.0066954547161985	0
281	0	0
278.125	-0.21125	0
295	0	0
297	0	0
279	0	0
275.625	-0.14225	0
272.5	-0.0625	0
274.0625	-0.1015625	0
282.5	0	0
283.125	-0.286125	0
305.98440524941	0	0
312.5	-0.4305	0
292.5	-0.3765	0
277.5	0	0
276.5	0	0
274.5	0	0
276.875	-0.17675	0
270.4998438232	-0.012496095580101	0
273.5	0	0
289	0	0
271.25	0	0
287	0	0
287.5	-0.3275	0
302.79688104988	0	0
271.875	-0.046875	0
280.625	-0.267625	0
273.125	-0.078125	0
275.9375	-0.150875	0
278.5	0	0
279.375	-0.24575	0
275.5	0	0
272.5	0	0
272.8125	-0.0703125	0
291.875	-0.371125	0
312.35945364848	0	0
293	0	0
270.8749219116	-0.021873047790051	0
274.25	0	0
274.6875	-0.1171875	0
276.5625	-0.168125	0
270.5	0	0
273.75	0	0
273.4375	-0.0859375	0
286.875	-0.320625	0
288.125	-0.334375	0
271.5625	-0.0390625	0
272.1875	-0.0546875	0
271.75	0	0
280.5	0	0
273.25	0	0
279.5	0	0
275.3125	-0.133625	0
272.96875	-0.07421875	0
272.75	0	0
271.0624609558	-0.026561523895026	0
274.75	0	0
270.75	0	0
271.875	0	0
271.625	0	0
272.03125	-0.05078125	0
271.40625	-0.03515625	0
272.25	0	0
271.71875	-0.04296875	0
273.28125	-0.08203125	0
275.25	0	0
270.9686914337	-0.024217285842539	0
272.65625	-0.06640625	0
271.125	0	0
270.875	0	0
270.6873828674	-0.017184571685075	0
272.125	0	0
271.484375	-0.037109375	0
271.375	0	0
272.34375	-0.05859375	0
271.640625	-0.041015625	0
270.7811523895	-0.019528809737562	0
271.0625	0	0
271.01557619475	-0.025389404868783	0
272.625	0	0
271.1562304779	-0.028905761947513	0
270.9375	0	0
270.625	0	0
271.328125	-0.033203125	0
272.375	0	0
270.73426762845	-0.018356690711319	0
270.8125	0	0
270.6875	0	0
271.1875	0	0
270.92180667265	-0.023045166816294	0
270.5936133453	-0.014840333632588	0
271.3125	0	0
270.82803715055	-0.020700928763807	0
270.64049810635	-0.016012452658832	0
270.5625	0	0
270.59375	0	0
270.54672858425	-0.013668214606345	0
270.53125	0	0
270.52328620373	-0.013082155093224	0
270.515625	0	0
270.57017096478	-0.014254274119466	0
270.578125	0	0
270.84375	0	0
270.75771000898	-0.01894275022444	0
270.78125	0	0
270.65625	0	0
270.71875	0	0
270.61705572583	-0.015426393145711	0
270.5340365736	-0.052208000658949	0
270.66394048688	-0.016598512171953	0
270.71082524793	-0.017770631198198	0
270.76846037884	-0.05806859579026	0
270.6278060957	-0.054552238711436	0
270.58092133465	-0.053380119685286	0
270.55783169338	-0.038684489988564	0
270.51094693233	-0.037512370962335	0
270.74537073757	-0.043372966093579	0
270.60471645443	-0.039856609014822	0
270.67469085675	-0.055724357737773	0
270.65160121548	-0.041028728041051	0
270.7220290113	-0.038760736760798	0
270.69859642083	-0.037783074985415	0
270.72605961572	-0.079732931278297	0
270.70937739479	-0.060689679543497	0
270.68638670922	-0.097658505649418	0
271.03125	0	0
270.90625	0	0
270.55716846873	-0.065213475836366	0
270.2499219116	-0.0062480477900507	0
270.25	0	0
270.60405322978	-0.066385594862729	0
270.65093799083	-0.067557713888852	0
270.52405866722	-0.097029228218085	0
270.3748828674	-0.0093720716850754	0
270.375	0	0
270.58021298098	-0.081714266361007	0
270.62709774203	-0.082886385386924	0
270.50671581081	-0.069647204294728	0
270.55356025985	-0.094594627564262	0
270.65449475756	-0.099292820242324	0
270.4373633453	-0.010934083632588	0
270.4375	0	0
270.58822322032	-0.13230526215854	0
270.46785480982	-0.041666067059269	0
270.54242441803	-0.13961661295872	0
271.2890625	-0.0322265625	0
271.20311523895	-0.030077880973757	0
271.21875	0	0
270.62346613214	-0.12002907118219	0
270.47002831779	-0.11206703702727	0
270.67314801124	-0.15130537805499	0
271.5234375	-0.0380859375	0
271.6875	0	0
271.4375	0	0
271.10934571685	-0.02773364292127	0
271.09375	0	0
270.40452678172	-0.074006062847819	0
271.30697605287	-0.097422728938454	0
270.72774181465	-0.13632082982895	0
270.62310087075	-0.17570684415742	0
271.5625	0	0
271.54135105287	-0.10328210393845	0
271.26850132923	-0.072935111974138	0
271.50287632923	-0.078794486974138	0
271.796875	-0.044921875	0
271.8125	0	0
271.953125	-0.048828125	0
271.9375	0	0
270.84953789029	-0.098952619895352	0
270.76664746985	-0.10684532142393	0
270.57246351746	-0.18068449674333	0
271.22564906458	-0.067006136292931	0
271.17865152814	-0.070345032778248	0
271.23725371908	-0.14095633731536	0
271.44421880923	-0.079880443460566	0
270.99019217344	-0.10246897697408	0
270.89712812985	-0.071905598554565	0
270.79602146628	-0.18603114398103	0
270.48941412048	-0.20991097973985	0
271.13177299343	-0.06892386036932	0
271.20495396325	-0.10813935266456	0
271.48154941823	-0.15477251625246	0
271.03778241299	-0.075421955633297	0
270.94421419939	-0.065025377941526	0
270.60602778443	-0.26207755314564	0
271.08488825147	-0.06775097753475	0
271.15381639353	-0.11567827004025	0
[...]
CELL_DATA 13292
SCALARS Marker double 1
LOOKUP_TABLE default
-1 -1 -1 -1 0 0 0 0 1 1 1 1 2 2 2 2 2409 2409 2409 2409 3 3 3 3 2409 2409 2409 2409 4 4 4 4 -1 -1 -1 -1 2409 2409 2409 2409 2409 2409 2409 2409 5 5 5 5 6 6 6 6 7 7 7 7 2409 2409 2409 2409 2409 2409 2409 2409 2409 2409 2409 2409 8 8 8 8 2409 2409 2409 2409 9 9 9 9 10 10 10 10 2409 2409 2409 2409 11 11 11 11 2409 2409 2409 2409 12 12 12 12 2409 2409 2409 2409 2409 2409 2409 2409 13 13 13 13 14 14 14 14 2409 2409 2409 2409 2410 2410 2410 2410 -1 -1 -1 -1 2409 2409 2409 2409 2409 2409 2409 2409 15 15 15 15 2409 2409 2409 2409 16 16 16 16 2409 2409 2409 2409 2409 2409 2409 2409 17 17 17 17 2409 2409 2409 2409 18 18 18 18 19 19 19 19 20 20 20 20 21 21 21 21 22 22 22 22 2409 2409 2409 2409 23 23 23 23 24 24 24 24 2409 2409 2409 2409 25 25 25 25 2409 2409 2409 2409 26 26 26 26 2409 2409 2409 2409 27 27 27 27 2410 2410 2410 2410 28 28 28 28 29 29 29 29 2409 2409 2409 2409 30 30 30 30 2409 2409 2409 2409 2409 2409 2409 2409 2409 2409 2409 2409 31 31 31 31 32 32 32 32 2409 2409 2409 2409 2409 2409 2409 2409 33 33 33 33 34 34 34 34 35 35 35 35 2409 2409 2409 2409 36 36 36 36 37 37 37 37 2409 2409 2409 2409 2409 2409 2409 2409 38 38 38 38 2410 2410 2410 2410 39 39 39 39 40 40 40 40 2409 2409 2409 2409 41 41 41 41 2409 2409 2409 2409 42 42 42 42 2409 2409 2409 2409 43 43 43 43 44 44 44 44 45 45 45 45 2409 2409 2409 2409 2409 2409 2409 2409 46 46 46 46 2409 2409 2409 2409 47 47 47 47 48 48 48 48 49 49 49 49 2409 2409 2409 2409 50 50 50 50 2409 2409 2409 2409 51 51 51 51 2409 2409 2409 2409 52 52 52 52 2409 2409 2409 2409 2409 2409 2409 2409 2409 2409 2409 2409 53 53 53 53 2409 2409 2409 2409 2409 2409 2409 2409 54 54 54 54 2409 2409 2409 2409 55 55 55 55 56 56 56 56 57 57 57 57 2409 2409 2409 2409 58 58 58 58 59 59 59 59 60 60 60 60 2409 2409 2409 2409 61 61 61 61 62 62 62 62 63 63 63 63 2409 2409 2409 2409 2409 2409 2409 2409 2409 2409 2409 2409 2409 2409 2409 2409 64 64 64 64 65 65 65 65 2409 2409 2409 2409 2409 2409 2409 2409 2409 2409 2409 2409 66 66 66 66 67 67 67 67 2409 2409 2409 2409 2409 2409 2409 2409 2409 2409 2409 2409 2409 2409 2409 2409 2409 2409 2409 2409 68 68 68 68 69 69 69 69 2409 2409 2409 2409 2409 2409 2409 2409 70 70 70 70 71 71 71 71 2410 2410 2410 2410 72 72 72 72 73 73 73 73 2410 2410 2410 2410 2410 2410 2410 2410 2410 2410 2410 2410 74 74 74 74 2409 2409 2409 2409 75 75 75 75 76 76 76 76 2410 2410 2410 2410 77 77 77 77 2409 2409 2409 2409 2409 2409 2409 2409 78 78 78 78 79 79 79 79 80 80 80 80 81 81 81 81 2409 2409 2409 2409 2409 2409 2409 2409 82 82 82 82 2410 2410 2410 2410 83 83 83 83 84 84 84 84 2410 2410 2410 2410 85 85 85 85 2410 2410 2410 2410 86 86 86 86 2410 2410 2410 2410 87 87 87 87 2410 2410 2410 2410 88 88 88 88 89 89 89 89 2410 2410 2410 2410 90 90 90 90 91 91 91 91 92 92 92 92 2410 2410 2410 2410 93 93 93 93 94 94 94 94 95 95 95 95 96 96 96 96 2410 2410 2410 2410 2410 2410 2410 2410 97 97 97 97 2410 2410 2410 2410 98 98 98 98 99 99 99 99 2410 2410 2410 2410 2410 2410 2410 2410 100 100 100 100 2410 2410 2410 2410 101 101 101 101 102 102 102 102 2410 2410 2410 2410 103 103 103 103 2410 2410 2410 2410 104 104 104 104 105 105 105 105 2410 2410 2410 2410 106 106 106 106 107 107 107 107 2410 2410 2410 2410 2410 2410 2410 2410 108 108 108 108 2410 2410 2410 2410 109 109 109 109 110 110 110 110 111 111 111 111 112 112 112 112 2410 2410 2410 2410 2410 2410 2410 2410 113 113 113 113 2410 2410 2410 2410 114 114 114 114 115 115 115 115 2410 2410 2410 2410 2410 2410 2410 2410 116 116 116 116 2410 2410 2410 2410 117 117 117 117 118 118 118 118 2410 2410 2410 2410 119 119 119 119 2410 2410 2410 2410 120 120 120 120 2410 2410 2410 2410 121 121 121 121 2410 2410 2410 2410 122 122 122 122 2410 2410 2410 2410 -1 -1 -1 -1 2410 2410 2410 2410 2410 2410 2410 2410 123 123 123 123 124 124 124 124 2410 2410 2410 2410 2410 2410 2410 2410 125 125 125 125 2410 2410 2410 2410 126 126 126 126 127 127 127 127 2410 2410 2410 2410 128 128 128 128 129 129 129 129 130 130 130 130 131 131 131 131 2410 2410 2410 2410 2410 2410 2410 2410 2410 2410 2410 2410 132 132 132 132 2410 2410 2410 2410 133 133 133 133 134 134 134 134 2410 2410 2410 2410 2410 2410 2410 2410 135 135 135 135 136 136 136 136 2410 2410 2410 2410 2410 2410 2410 2410 137 137 137 137 138 138 138 138 2410 2410 2410 2410 2410 2410 2410 2410 139 139 139 139 2410 2410 2410 2410 140 140 140 140 141 141 141 141 2410 2410 2410 2410 2410 2410 2410 2410 142 142 142 142 2410 2410 2410 2410 143 143 143 143 2410 2410 2410 2410 144 144 144 144 2410 2410 2410 2410 2410 2410 2410 2410 2410 2410 2410 2410 145 145 145 145 2410 2410 2410 2410 2410 2410 2410 2410 146 146 146 146 2410 2410 2410 2410 147 147 147 147 148 148 148 148 149 149 149 149 2410 2410 2410 2410 2410 2410 2410 2410 150 150 150 150 2410 2410 2410 2410 151 151 151 151 152 152 152 152 2410 2410 2410 2410 2410 2410 2410 2410 153 153 153 153 154 154 154 154 155 155 155 155 156 156 156 156 2410 2410 2410 2410 2410 2410 2410 2410 157 157 157 157 158 158 158 158 159 159 159 159 -1 -1 -1 -1 -1 -1 -1 -1 160 160 160 160 2410 2410 2410 2410 2410 2410 2410 2410 161 161 161 161 2410 2410 2410 2410 2410 2410 2410 2410 162 162 162 162 2410 2410 2410 2410 163 163 163 163 164 164 164 164 165 165 165 165 2410 2410 2410 2410 2410 2410 2410 2410 166 166 166 166 167 167 167 167 2410 2410 2410 2410 2410 2410 2410 2410 168 168 168 168 2410 2410 2410 2410 169 169 169 169 170 170 170 170 2410 2410 2410 2410 2410 2410 2410 2410 171 171 171 171 172 172 172 172 173 173 173 173 2410 2410 2410 2410 174 174 174 174 175 175 175 175 2410 2410 2410 2410 2410 2410 2410 2410 176 176 176 176 2410 2410 2410 2410 177 177 177 177 178 178 178 178 2410 2410 2410 2410 2410 2410 2410 2410 179 179 179 179 180 180 180 180 2410 2410 2410 2410 2410 2410 2410 2410 181 181 181 181 182 182 182 182 2409 2409 2409 2409 2410 2410 2410 2410 183 183 183 183 184 184 184 184 2409 2409 2409 2409 2410 2410 2410 2410 185 185 185 185 2410 2410 2410 2410 186 186 186 186 187 187 187 187 2410 2410 2410 2410 2409 2409 2409 2409 188 188 188 188 189 189 189 189 190 190 190 190 2409 2409 2409 2409 2410 2410 2410 2410 2409 2409 2409 2409 191 191 191 191 2409 2409 2409 2409 192 192 192 192 193 193 193 193 2409 2409 2409 2409 2409 2409 2409 2409 194 194 194 194 195 195 195 195 2410 2410 2410 2410 2410 2410 2410 2410 196 196 196 196 197 197 197 197 2409 2409 2409 2409 198 198 198 198 199 199 199 199 2410 2410 2410 2410 200 200 200 200 201 201 201 201 2410 2410 2410 2410 202 202 202 202 2410 2410 2410 2410 2409 2409 2409 2409 203 203 203 203 204 204 204 204 205 205 205 205 206 206 206 206 207 207 207 207 2410 2410 2410 2410 208 208 208 208 2410 2410 2410 2410 209 209 209 209 210 210 210 210 211 211 211 211 2410 2410 2410 2410 212 212 212 212 213 213 213 213 2410 2410 2410 2410 2410 2410 2410 2410 214 214 214 214 215 215 215 215 216 216 216 216 217 217 217 217 2410 2410 2410 2410 2409 2409 2409 2409 218 218 218 218 2409 2409 2409 2409 219 219 219 219 2409 2409 2409 2409 2410 2410 2410 2410 2410 2410 2410 2410 220 220 220 220 2410 2410 2410 2410 221 221 221 221 2410 2410 2410 2410 222 222 222 222 223 223 223 223 2410 2410 2410 2410 2410 2410 2410 2410 224 224 224 224 2410 2410 2410 2410 2410 2410 2410 2410 225 225 225 225 2410 2410 2410 2410 2410 2410 2410 2410 226 226 226 226 227 227 227 227 2410 2410 2410 2410 2409 2409 2409 2409 228 228 228 228 229 229 229 229 2409 2409 2409 2409 2409 2409 2409 2409 230 230 230 230 2410 2410 2410 2410 231 231 231 231 232 232 232 232 2410 2410 2410 2410 2410 2410 2410 2410 -1 -1 -1 -1 2410 2410 2410 2410 233 233 233 233 2409 2409 2409 2409 234 234 234 234 235 235 235 235 236 236 236 236 2409 2409 2409 2409 237 237 237 237 2410 2410 2410 2410 238 238 238 238 239 239 239 239 2409 2409 2409 2409 2410 2410 2410 2410 2410 2410 2410 2410 240 240 240 240 2410 2410 2410 2410 2410 2410 2410 2410 241 241 241 241 242 242 242 242 2410 2410 2410 2410 2410 2410 2410 2410 -1 -1 -1 -1 2410 2410 2410 2410 243 243 243 243 244 244 244 244 2410 2410 2410 2410 2410 2410 2410 2410 245 245 245 245 2410 2410 2410 2410 2410 2410 2410 2410 246 246 246 246 2410 2410 2410 2410 247 247 247 247 2410 2410 2410 2410 2410 2410 2410 2410 2410 2410 2410 2410 2410 2410 2410 2410 248 248 248 248 2410 2410 2410 2410 249 249 249 249 2410 2410 2410 2410 2410 2410 2410 2410 2410 2410 2410 2410 2410 2410 2410 2410 2410 2410 2410 2410 250 250 250 250 2410 2410 2410 2410 2410 2410 2410 2410 251 251 251 251 2410 2410 2410 2410 252 252 252 252 2410 2410 2410 2410 253 253 253 253 2410 2410 2410 2410 254 254 254 254 2410 2410 2410 2410 2410 2410 2410 2410 255 255 255 255 2410 2410 2410 2410 2410 2410 2410 2410 2410 2410 2410 2410 256 256 256 256 2410 2410 2410 2410 257 257 257 257 2410 2410 2410 2410 2410 2410 2410 2410 2410 2410 2410 2410 258 258 258 258 2410 2410 2410 2410 2410 2410 2410 2410 259 259 259 259 2410 2410 2410 2410 260 260 260 260 2410 2410 2410 2410 2410 2410 2410 2410 2410 2410 2410 2410 261 261 261 261 2410 2410 2410 2410 262 262 262 262 2410 2410 2410 2410 263 263 263 263 2410 2410 2410 2410 264 264 264 264 2410 2410 2410 2410 265 265 265 265 2410 2410 2410 2410 2410 2410 2410 2410 2410 2410 2410 2410 2410 2410 2410 2410 2410 2410 2410 2410 266 266 266 266 2410 2410 2410 2410 267 267 267 267 2410 2410 2410 2410 2410 2410 2410 2410 268 268 268 268 2410 2410 2410 2410 2410 2410 2410 2410 2410 2410 2410 2410 2410 2410 2410 2410 2410 2410 2410 2410 269 269 269 269 2410 2410 2410 2410 270 270 270 270 2410 2410 2410 2410 2410 2410 2410 2410 271 271 271 271 2410 2410 2410 2410 272 272 272 272 2410 2410 2410 2410 2410 2410 2410 2410 273 273 273 273 2410 2410 2410 2410 274 274 274 274 2410 2410 2410 2410 2410 2410 2410 2410 2410 2410 2410 2410 275 275 275 275 2410 2410 2410 2410 2410 2410 2410 2410 276 276 276 276 2410 2410 2410 2410 2410 2410 2410 2410 277 277 277 277 2410 2410 2410 2410 278 278 278 278 2410 2410 2410 2410 279 279 279 279 2410 2410 2410 2410 2410 2410 2410 2410 280 280 280 280 2410 2410 2410 2410 2410 2410 2410 2410 281 281 281 281 2410 2410 2410 2410 2410 2410 2410 2410 2410 2410 2410 2410 282 282 282 282 2410 2410 2410 2410 2410 2410 2410 2410 283 283 283 283 2410 2410 2410 2410 2410 2410 2410 2410 2410 2410 2410 2410 2410 2410 2410 2410 284 284 284 284 2410 2410 2410 2410 285 285 285 285 2410 2410 2410 2410 2410 2410 2410 2410 286 286 286 286 2410 2410 2410 2410 287 287 287 287 2410 2410 2410 2410 2410 2410 2410 2410 2410 2410 2410 2410 288 288 288 288 2410 2410 2410 2410 2410 2410 2410 2410 289 289 289 289 2410 2410 2410 2410 2410 2410 2410 2410 290 290 290 290 2410 2410 2410 2410 2410 2410 2410 2410 2410 2410 2410 2410 291 291 291 291 2410 2410 2410 2410 2410 2410 2410 2410 2410 2410 2410 2410 2410 2410 2410 2410 292 292 292 292 2410 2410 2410 2410 293 293 293 293 294 294 294 294 295 295 295 295 2410 2410 2410 2410 296 296 296 296 2410 2410 2410 2410 297 297 297 297 298 298 298 298 299 299 299 299 300 300 300 300 301 301 301 301 302 302 302 302 303 303 303 303 304 304 304 304 305 305 305 305 306 306 306 306 307 307 307 307 308 308 308 308 309 309 309 309 310 310 310 310 311 311 311 311 312 312 312 312 313 313 313 313 314 314 314 314 315 315 315 315 316 316 316 316 317 317 317 317 318 318 318 318 319 319 319 319 320 320 320 320 321 321 321 321 322 322 322 322 323 323 323 323 324 324 324 324 2410 2410 2410 2410 2410 2410 2410 2410 325 325 325 325 326 326 326 326 327 327 327 327 2410 2410 2410 2410 2410 2410 2410 2410 328 328 328 328 329 329 329 329 330 330 330 330 331 331 331 331 332 332 332 332 333 333 333 333 334 334 334 334 2410 2410 2410 2410 2410 2410 2410 2410 335 335 335 335 336 336 336 336 337 337 337 337 338 338 338 338 339 339 339 339 340 340 340 340 341 341 341 341 342 342 342 342 343 343 343 343 344 344 344 344 345 345 345 345 2410 2410 2410 2410 2410 2410 2410 2410 346 346 346 346 347 347 347 347 348 348 348 348 349 349 349 349 350 350 350 350 351 351 351 351 2410 2410 2410 2410 352 352 352 352 353 353 353 353 2410 2410 2410 2410 2410 2410 2410 2410 354 354 354 354 355 355 355 355 356 356 356 356 357 357 357 357 358 358 358 358 359 359 359 359 2410 2410 2410 2410 360 360 360 360 2410 2410 2410 2410 2410 2410 2410 2410 361 361 361 361 2410 2410 2410 2410 362 362 362 362 2410 2410 2410 2410 363 363 363 363 364 364 364 364 365 365 365 365 366 366 366 366 367 367 367 367 368 368 368 368 369 369 369 369 2410 2410 2410 2410 370 370 370 370 371 371 371 371 372 372 372 372 373 373 373 373 374 374 374 374 375 375 375 375 376 376 376 376 2410 2410 2410 2410 2410 2410 2410 2410 377 377 377 377 2410 2410 2410 2410 2410 2410 2410 2410 378 378 378 378 379 379 379 379 380 380 380 380 381 381 381 381 382 382 382 382 383 383 383 383 384 384 384 384 385 385 385 385 386 386 386 386 387 387 387 387 388 388 388 388 389 389 389 389 390 390 390 390 391 391 391 391 392 392 392 392 393 393 393 393 394 394 394 394 395 395 395 395 396 396 396 396 397 397 397 397 398 398 398 398 399 399 399 399 400 400 400 400 401 401 401 401 402 402 402 402 403 403 403 403 404 404 404 404 405 405 405 405 406 406 406 406 407 407 407 407 408 408 408 408 409 409 409 409 410 410 410 410 411 411 411 411 412 412 412 412 413 413 413 413 414 414 414 414 415 415 415 415 416 416 416 416 417 417 417 417 418 418 418 418 419 419 419 419 420 420 420 420 421 421 421 421 422 422 422 422 423 423 423 423 2410 2410 2410 2410 424 424 424 424 425 425 425 425 426 426 426 426 427 427 427 427 428 428 428 428 429 429 429 429 430 430 430 430 431 431 431 431 432 432 432 432 2410 2410 2410 2410 433 433 433 433 434 434 434 434 435 435 435 435 436 436 436 436 2410 2410 2410 2410 437 437 437 437 438 438 438 438 2410 2410 2410 2410 2410 2410 2410 2410 439 439 439 439 440 440 440 440 441 441 441 441 442 442 442 442 443 443 443 443 444 444 444 444 445 445 445 445 446 446 446 446 447 447 447 447 448 448 448 448 449 449 449 449 450 450 450 450 451 451 451 451 452 452 452 452 453 453 453 453 454 454 454 454 455 455 455 455 456 456 456 456 2410 2410 2410 2410 457 457 457 457 2410 2410 2410 2410 2410 2410 2410 2410 458 458 458 458 2410 2410 2410 2410 459 459 459 459 2410 2410 2410 2410 460 460 460 460 461 461 461 461 462 462 462 462 463 463 463 463 464 464 464 464 2410 2410 2410 2410 465 465 465 465 466 466 466 466 467 467 467 467 468 468 468 468 469 469 469 469 470 470 470 470 471 471 471 471 472 472 472 472 473 473 473 473 474 474 474 474 475 475 475 475 476 476 476 476 477 477 477 477 478 478 478 478 479 479 479 479 480 480 480 480 481 481 481 481 482 482 482 482 483 483 483 483 484 484 484 484 485 485 485 485 486 486 486 486 487 487 487 487 488 488 488 488 489 489 489 489 490 490 490 490 491 491 491 491 492 492 492 492 493 493 493 493 494 494 494 494 495 495 495 495 496 496 496 496 497 497 497 497 498 498 498 498 499 499 499 499 500 500 500 500 501 501 501 501 502 502 502 502 503 503 503 503 504 504 504 504 505 505 505 505 506 506 506 506 507 507 507 507 2410 2410 2410 2410 2410 2410 2410 2410 508 508 508 508 2410 2410 2410 2410 2410 2410 2410 2410 509 509 509 509 510 510 510 510 511 511 511 511 512 512 512 512 513 513 513 513 514 514 514 514 515 515 515 515 516 516 516 516 2410 2410 2410 2410 517 517 517 517 518 518 518 518 519 519 519 519 520 520 520 520 521 521 521 521 522 522 522 522 523 523 523 523 524 524 524 524 525 525 525 525 526 526 526 526 527 527 527 527 2410 2410 2410 2410 528 528 528 528 529 529 529 529 530 530 530 530 531 531 531 531 2410 2410 2410 2410 532 532 532 532 533 533 533 533 2410 2410 2410 2410 2410 2410 2410 2410 534 534 534 534 535 535 535 535 536 536 536 536 537 537 537 537 538 538 538 538 539 539 539 539 540 540 540 540 541 541 541 541 542 542 542 542 543 543 543 543 544 544 544 544 545 545 545 545 546 546 546 546 547 547 547 547 2410 2410 2410 2410 548 548 548 548 2410 2410 2410 2410 549 549 549 549 2410 2410 2410 2410 550 550 550 550 2410 2410 2410 2410 551 551 551 551 552 552 552 552 553 553 553 553 554 554 554 554 555 555 555 555 556 556 556 556 557 557 557 557 558 558 558 558 559 559 559 559 2410 2410 2410 2410 560 560 560 560 561 561 561 561 562 562 562 562 563 563 563 563 564 564 564 564 565 565 565 565 566 566 566 566 567 567 567 567 568 568 568 568 569 569 569 569 570 570 570 570 571 571 571 571 572 572 572 572 573 573 573 573 574 574 574 574 575 575 575 575 576 576 576 576 577 577 577 577 578 578 578 578 579 579 579 579 580 580 580 580 581 581 581 581 582 582 582 582 583 583 583 583 584 584 584 584 585 585 585 585 586 586 586 586 587 587 587 587 588 588 588 588 589 589 589 589 590 590 590 590 591 591 591 591 592 592 592 592 593 593 593 593 594 594 594 594 595 595 595 595 596 596 596 596 597 597 597 597 598 598 598 598 599 599 599 599 600 600 600 600 601 601 601 601 602 602 602 602 603 603 603 603 604 604 604 604 2410 2410 2410 2410 2410 2410 2410 2410 605 605 605 605 2410 2410 2410 2410 2410 2410 2410 2410 606 606 606 606 2410 2410 2410 2410 607 607 607 607 608 608 608 608 609 609 609 609 610 610 610 610 611 611 611 611 612 612 612 612 613 613 613 613 614 614 614 614 615 615 615 615 616 616 616 616 617 617 617 617 618 618 618 618 619 619 619 619 2410 2410 2410 2410 620 620 620 620 621 621 621 621 622 622 622 622 623 623 623 623 624 624 624 624 625 625 625 625 626 626 626 626 627 627 627 627 628 628 628 628 629 629 629 629 630 630 630 630 631 631 631 631 2410 2410 2410 2410 632 632 632 632 633 633 633 633 634 634 634 634 635 635 635 635 636 636 636 636 637 637 637 637 638 638 638 638 2410 2410 2410 2410 639 639 639 639 2410 2410 2410 2410 2410 2410 2410 2410 640 640 640 640 2410 2410 2410 2410 2410 2410 2410 2410 641 641 641 641 642 642 642 642 2410 2410 2410 2410 2410 2410 2410 2410 643 643 643 643 644 644 644 644 645 645 645 645 646 646 646 646 647 647 647 647 648 648 648 648 649 649 649 649 650 650 650 650 651 651 651 651 2410 2410 2410 2410 2410 2410 2410 2410 2410 2410 2410 2410 2410 2410 2410 2410 2410 2410 2410 2410 652 652 652 652 2410 2410 2410 2410 653 653 653 653 2410 2410 2410 2410 654 654 654 654 2410 2410 2410 2410 2410 2410 2410 2410 655 655 655 655 656 656 656 656 657 657 657 657 658 658 658 658 659 659 659 659 660 660 660 660 661 661 661 661 662 662 662 662 663 663 663 663 664 664 664 664 665 665 665 665 666 666 666 666 667 667 667 667 668 668 668 668 669 669 669 669 670 670 670 670 671 671 671 671 2410 2410 2410 2410 672 672 672 672 2410 2410 2410 2410 2410 2410 2410 2410 673 673 673 673 674 674 674 674 675 675 675 675 676 676 676 676 677 677 677 677 678 678 678 678 679 679 679 679 680 680 680 680 681 681 681 681 682 682 682 682 683 683 683 683 684 684 684 684 685 685 685 685 686 686 686 686 687 687 687 687 688 688 688 688 689 689 689 689 690 690 690 690 691 691 691 691 692 692 692 692 693 693 693 693 694 694 694 694 695 695 695 695 696 696 696 696 697 697 697 697 698 698 698 698 699 699 699 699 700 700 700 700 701 701 701 701 702 702 702 702 703 703 703 703 704 704 704 704 705 705 705 705 706 706 706 706 707 707 707 707 708 708 708 708 709 709 709 709 710 710 710 710 711 711 711 711 712 712 712 712 713 713 713 713 714 714 714 714 715 715 715 715 716 716 716 716 717 717 717 717 718 718 718 718 719 719 719 719 720 720 720 720 721 721 721 721 722 722 722 722 723 723 723 723 724 724 724 724 725 725 725 725 726 726 726 726 727 727 727 727 728 728 728 728 729 729 729 729 730 730 730 730 731 731 731 731 732 732 732 732 733 733 733 733 2410 2410 2410 2410 734 734 734 734 2410 2410 2410 2410 735 735 735 735 2410 2410 2410 2410 2410 2410 2410 2410 736 736 736 736 2410 2410 2410 2410 2410 2410 2410 2410 2410 2410 2410 2410 737 737 737 737 2410 2410 2410 2410 738 738 738 738 2410 2410 2410 2410 2410 2410 2410 2410 739 739 739 739 740 740 740 740 741 741 741 741 742 742 742 742 743 743 743 743 744 744 744 744 745 745 745 745 746 746 746 746 747 747 747 747 748 748 748 748 749 749 749 749 750 750 750 750 751 751 751 751 752 752 752 752 753 753 753 753 754 754 754 754 755 755 755 755 756 756 756 756 757 757 757 757 758 758 758 758 759 759 759 759 760 760 760 760 761 761 761 761 762 762 762 762 763 763 763 763 764 764 764 764 765