# vtk DataFile Version 3.0
d-2__ created by libgimli-v1.5.0-1-g5991b6ac
ASCII
DATASET UNSTRUCTURED_GRID
POINTS 1168 double
114.18005865399	7.2487994028702	0
111.165132612	9.4764278514866	0
110.43511215879	7.4405192464437	0
62.501038442816	8.5784531406305	0
63.701041527211	10.020806433932	0
61.20256307059	9.9352267636788	0
35.210452090892	0.26135006255885	0
33.935777523235	-5.2426217590064	0
38.042759766027	-1.3630344196873	0
207.2751701925	5.8735236865679	0
209.15292882827	5.8318691528614	0
208.59662296525	7.2131277602332	0
105.56526744174	8.0767295174019	0
107.44316821037	8.0955240076845	0
106.16746314646	9.4792141609275	0
8.7498567871965	9.2255908013452	0
9.392929365816	7.1604797355854	0
9.9998090495953	9.2365151651269	0
105.93786091364	5.5067223536065	0
108.02823719607	1.5290862806594	0
108.487648603	5.9990083034842	0
5.6430725786195	7.1277066442402	0
5	9.19281771	0
4.375	7.8655121549951	0
3.75	9.19281771	0
201.10231984399	7.3437230377005	0
202.37357978055	5.9656591305008	0
203.60184993563	7.3821740032612	0
2.5	7.7934168627952	0
148.62117177316	5.6584337840176	0
150.4546725779	7.0115716434621	0
149.31715463022	7.8282990172369	0
6.2499522623988	9.2037420737817	0
52.506730211565	8.5717609942344	0
53.681562480482	6.6331572847062	0
54.375231219161	8.7912209732159	0
73.685448294642	9.8296642229879	0
72.320144621037	8.544601857806	0
74.186912730014	8.3696269142513	0
224.20489042943	5.5688559881321	0
224.8420883494	6.8818789621191	0
223.59214788754	6.893468043337	0
13.725926242189	9.6590608350235	0
12.642428902923	8.1201502720869	0
14.487114049284	8.4934449488639	0
184.21517265544	7.0185984431619	0
183.63432642795	8.3229560329707	0
182.33723806457	6.9638391562155	0
39.960932361976	9.7176472285918	0
40.621120112508	7.6579679350408	0
41.21073757897	9.7389479689377	0
74.930764861332	9.7223499197406	0
38.711687648481	9.7609373324438	0
39.288740179579	8.3665454417005	0
15.665833543641	7.7527104314022	0
14.967965306387	9.7999093916557	0
140.24018113531	5.7818742205725	0
137.43769470256	4.5600287356564	0
140.34055695384	1.7267623196485	0
71.194815161262	10.044292829482	0
181.13581435364	8.4082137523287	0
76.18069912602	9.7208399800555	0
75.553230745579	7.6510515158489	0
64.370215419145	8.7414496326781	0
79.303033539643	7.6465216967934	0
78.680567655396	9.7178201006852	0
84.305501920084	8.398011577828	0
83.680501920084	9.716310161	0
82.430527380412	8.3163980409013	0
73.679735881692	5.7470035534289	0
121.15995594245	9.28	0
122.40995594245	7.8758353051493	0
123.65995594245	9.28	0
51.208635742783	9.9335280256604	0
53.707123353078	10.020386205796	0
132.59191578695	0.6764702578856	0
133.65681701447	5.250699872324	0
130.94820419352	5.075993344269	0
103.66937384005	9.5238671626456	0
101.17276453865	9.6539200361377	0
102.34817689144	8.1895889622653	0
99.924459887949	9.7189464728837	0
99.263262008114	8.6606918337413	0
100.48098681666	8.3882366847481	0
161.14116346257	8.6843344889384	0
159.89160799462	8.717516764958	0
160.46141856298	6.6310096779709	0
108.66703245789	9.5199610309832	0
36.213198221492	9.8475175401479	0
37.414035886886	8.4073204401269	0
120.53495594245	7.9607647767271	0
104.1858084514	7.4235100014203	0
104.91767849075	9.4588407258996	0
222.32922869018	5.5052354874899	0
10.7825335562	7.8809830828426	0
119.90995594245	9.28	0
119.28302160853	7.2099871812347	0
180.44057069711	6.3601082468584	0
179.88655831649	8.4508426120077	0
38.781156016173	5.8051402025497	0
79.930501920084	9.716310161	0
89.930501920084	9.716310161	0
90.601714813629	8.3840628052105	0
91.179751951671	9.759301996229	0
85.555501920084	7.6456578349695	0
84.930501920084	9.716310161	0
97.377071454442	8.3602925045399	0
95.481996638796	7.797718647765	0
97.059593191627	5.9566011954794	0
80.555501920084	8.3968332132287	0
109.9168171136	9.540334466011	0
88.680501920084	9.716310161	0
86.180501920084	9.716310161	0
98.67522042757	9.7612792301418	0
66.482485888034	1.8950167364815	0
67.34577685204	-2.6484062757251	0
69.14038606304	1.613910199641	0
87.430501920084	3.7992698645152	0
83.688557401635	5.9584028928449	0
82.44936110315	1.784227353158	0
99.420796501986	6.507276493418	0
36.973894899551	6.5158660163314	0
89.305501920084	7.6456578349695	0
1.25	9.19281771	0
0.625	7.3765680123844	0
0	9.19281771	0
129.1727638881	6.98749895374	0
125.42780086824	7.1800389618576	0
127.10506339536	3.2866990471677	0
13.961113348705	6.3482216897514	0
115.95590617299	5.3380601900048	0
112.11317848521	3.547224982174	0
117.93846833791	2.6341553139446	0
34.338953507998	8.6069229516663	0
34.963953507998	9.890807644	0
33.713953507998	9.890807644	0
29.338788335146	8.5724592055089	0
29.963953507998	9.890807644	0
28.713954880094	9.8909648945624	0
23.714153345331	9.9127871806689	0
24.30368854385	7.8317815307122	0
24.963958996381	9.8914366462494	0
194.85954130577	7.5883341517843	0
194.1430589142	6.2992710261715	0
195.37440521972	5.4875955767907	0
44.960153229954	9.8028501899754	0
45.621190432025	7.7434192314887	0
46.209962906875	9.8246623763797	0
43.710348012959	9.7815494496295	0
44.357722547056	8.4736761725449	0
158.64278674094	8.7717668201712	0
159.20922366303	7.4101031574208	0
147.44844542806	7.6122557275877	0
92.477357911942	8.3971748102886	0
93.678252014846	9.845285666687	0
35.516864861357	7.799761414651	0
81.180501920084	9.716310161	0
19.964736392179	9.9768387839271	0
18.715543620731	9.9326064358593	0
19.384972283264	8.6885868842642	0
20.554271590699	7.8958331339704	0
16.217158077835	9.8441417397236	0
188.36642105038	4.2692203437141	0
190.35099894069	5.827291336602	0
189.15754856703	6.6651026183619	0
18.688439587421	6.4024862033537	0
91.161405756878	5.8946652877815	0
21.21454204323	9.9554882495077	0
81.172175159266	5.9469362028192	0
31.213953507998	9.890807644	0
30.588953507998	7.8201553179695	0
118.65998673363	9.2811770019783	0
32.463953507998	8.4882342958193	0
145.5734503965	7.5818205194793	0
144.90236089699	8.9326559083063	0
144.24202204229	6.8730074964064	0
20.828423148619	5.6410136132682	0
22.983389885701	6.0743710131459	0
146.15161194801	8.9749632201443	0
148.65011405006	9.0595778438201	0
48.709582260716	9.8682867491882	0
49.370619462787	7.8088557907016	0
117.78297379254	5.983405343867	0
117.40870137133	7.8846067032052	0
55.51001374075	7.9730010037678	0
56.205606329238	10.020970704036	0
54.956367158225	10.063815295864	0
59.257731253791	7.8444672282838	0
58.704084671266	9.9352815203801	0
124.90995594245	9.28	0
126.15827694906	9.2158199972941	0
130.52683316229	7.6505784423387	0
131.15320683584	9.0220134676324	0
129.90323996892	9.0232799891765	0
94.927502046434	9.888277501916	0
94.345948693206	8.6152119424058	0
96.176741506812	9.8459447446579	0
11.241848113793	9.3773637217591	0
56.81526852133	4.274209660151	0
25.588790255127	8.5554723239059	0
27.46411815252	8.4913677101353	0
26.213957624285	9.8912793956871	0
59.953323842279	9.8924369285521	0
66.200085215285	10.085598984977	0
64.950280755522	10.063596269059	0
65.611630965318	8.0042692176656	0
51.237379059382	6.1623842838671	0
50.630439906913	8.5763612264866	0
49.959391937636	9.8900989355925	0
11.281261006537	5.2188216899497	0
185.79649689348	3.5335922739437	0
185.3646761992	6.1716198926894	0
183.38688594282	4.690931418587	0
121.09403108211	5.6092978971237	0
132.40251183257	7.6212828462335	0
133.65314056967	9.0194804245441	0
60.625618214226	8.5219784431413	0
69.34608960602	8.9197406339093	0
69.949498594572	10.15160713273	0
68.699694134809	10.129604416812	0
67.474713962626	8.6975255338029	0
142.37802930882	7.5319012284124	0
140.5095093975	7.9262666763955	0
123.50734463641	5.743010971759	0
206.09995097605	7.3386422441054	0
202.75892725629	4.0131383667985	0
204.25857989105	5.3215236253522	0
223.56304672954	3.126409329155	0
206.15325583179	3.8072492079475	0
205.412785635	6.1169088840236	0
199.85255479816	7.3244975549202	0
200.49885257136	5.9419979857416	0
143.65254753189	8.9540454069798	0
198.60430142507	7.3904567041362	0
199.11916533902	5.2897181291426	0
218.59274713459	6.9606052239331	0
217.3069398162	5.594464555731	0
219.1829515517	5.6093223341745	0
204.85161498145	7.4013994860415	0
70.394388388608	8.0350558647373	0
33.590828453395	6.2521062762062	0
176.13661008392	8.4539075033476	0
174.88662733973	8.4549291337942	0
175.50992635866	6.3837945771675	0
184.8835824651	8.2803271732917	0
141.15292080169	8.9968244043266	0
186.13060515173	8.1943532947816	0
168.51967104854	5.0014188129445	0
169.27477865432	7.3426478202337	0
167.40265209628	7.2023660844762	0
42.484397880379	8.3605692395267	0
188.62465052499	8.0224055377614	0
189.87167321162	7.9364316592512	0
187.28133869066	6.7117371600185	0
196.10779467887	7.5223750025683	0
191.11864023516	7.8494072823845	0
179.2605165534	7.1661816411761	0
200.88952479702	3.3303759959634	0
193.61257428223	7.675358528651	0
234.8372931243	7.0479618937561	0
233.58844453617	6.9955561366662	0
234.28903479559	5.2066958698333	0
225.44903337169	4.805862633862	0
17.516042267281	8.4850083865171	0
219.84232650197	6.9282352869906	0
220.44809916651	4.8518870465843	0
229.19889118848	4.77320756132	0
230.52386361392	5.4933291862569	0
229.84189877179	6.8383388653966	0
128.6549189623	9.0874599918824	0
1.9277304093008	5.9421739033321	0
3.7868453317075	5.3960194520225	0
228.59194616619	6.8492238895772	0
63.769767719392	6.3164274345674	0
226.092040955	6.8709939379385	0
136.15310743659	9.018213903	0
135.52810743659	6.9475615769695	0
137.40310743659	7.6170927382169	0
215.41517720796	4.9715745273889	0
214.84400903244	7.0577150347605	0
214.19483665797	5.7587161218137	0
211.09472147799	7.127206647413	0
209.84495895984	7.1503705182971	0
210.43146876042	5.0685296507002	0
213.59424651429	7.0808789056447	0
212.31853285291	5.7038982892994	0
93.651364615551	6.4518536166752	0
164.21008496684	6.5314628499121	0
164.88982986643	8.5847876608796	0
163.64027439848	8.6179699368992	0
109.31234878124	8.277261519394	0
221.09226696382	6.9166462057727	0
231.09074735992	6.8907446224864	0
232.39819696175	5.5466665332271	0
43.779769902662	6.0155855301159	0
216.09358839982	7.025345097818	0
124.28495594245	8.0120465024314	0
192.26821176106	6.3668087208411	0
[...]
CELL_DATA 2129
SCALARS DOI double 1
LOOKUP_TABLE default
0.13131611967547 0.54560537944194 0.31435903299491 1.4143101553378 0.29545075101796 0.3195034981406 0.0026549110142257 1.8025268896443 0.38402212100913 1.6232183595314 0.44528144814594 0.42173304049549 8.0857301938163 0.7120043463318 1.1260764452402 1.6726556295977 3.5101840672977 0.44678395912741 0.7250988604204 0.49528700780528 1.0007057523194 1.9196399471121 0.40363607845416 0.55111151132455 0.015468025951745 0.85262688214518 0.6641301894768 0.27016126785548 0.17445247075183 0.95153176446918 1.0944910371002 1.2837508000253 0.16307148096765 1.2223052095749 1.0812754866452 -0.053239312514649 0.56808734677955 0.80743734992562 2.5195782532937 0.58494491708269 0.99286070112385 0.59191861621725 0.27883681983403 1.2744763633061 1.8756612079758 3.6046443942649 0.047790738179896 13.207168141108 0.30701768963403 3.8865952319634 0.17431616046488 2.3753246378696 3.8291886933783 0.25131984556279 0.67329814978576 0.060021303267371 0.46203110716889 0.26495573634619 0.30802390784371 1.3548968281808 0.30815585802376 -0.046812010432653 0.61627913986067 0.29208971044589 4.5313839140511 0.45848223154752 3.9354281295948 0.046553326325339 0.21999976773801 -0.014279814052286 0.24814658888385 0.32998811704414 0.26502782312998 0.5563283392241 0.30581558262953 0.80093545848734 0.39993583414442 1.1314479475128 0.44456287831689 0.50286373465606 0.16947373609272 0.23421036635351 0.8800168560718 0.34387313156433 0.25881676330113 1.7771816108798 0.47273712945119 0.96947860221463 7.7741503875229 0.39026234350128 0.64586853910632 0.13819441547246 3.4993582345558 0.3068856267825 1.35626361694 0.70476361923964 2.4163804306129 -0.0031645056134073 0.50353676120571 0.52764898599055 0.78782902437352 0.76218055501088 0.30549102972439 0.45305165006813 0.30561001605442 6.4595704913419 1.1279849593302 0.17016738645575 0.21881582389876 0.91471873009283 0.29798091729787 1.6654509154126 0.40109016943988 1.3892375421679 0.14931679583634 4.0062490109087 0.084347157691031 0.98248505333196 4.8675626223459 0.047096813507074 0.5304743353419 1.9894644588655 1.3672379265432 0.37872227858746 3.1747633905588 0.47486357699551 0.18370702556812 0.21705221896388 0.94273174310413 0.81011758908731 0.81393304443875 1.2076459417775 1.5842939393331 0.9415499675972 0.60889152642697 0.010693706645724 0.7038385416815 0.55133001770397 2.4793472385391 0.93829508288981 0.87573348248863 0.54616781655918 0.79821806484518 0.16603886802226 0.25831159577183 2.6744308524903 0.24490473270908 0.24880730982229 0.35728422453235 1.2856846514371 0.92352832401025 2.6195855970689 1.9160480409367 0.39147134613589 0.52258791672394 0.24830774758063 10.627024315782 0.40852314827629 0.914649359483 1.0962368123018 1.4632236873428 0.39282871835813 1.0504666897385 11.949807344246 0.24032856250115 1.4766497671313 0.629883037289 0.29112995363559 0.4327212768513 0.74459840670269 4.4123199612817 0.062035622299752 0.033989992537084 6.6233927499231 1.6228180599771 0.20847327042174 0.32894010993272 0.29862305532987 1.3404866189644 2.6749959148803 0.72444704666407 2.8281985628797 0.58692431504657 9.386742586711 0.45143423363099 0.18815569565067 0.80456157001009 0.3098329019757 1.2747028136375 0.54635800572449 0.2851725918672 4.9862295065086 0.71004085020754 1.6483805557964 9.5296129656601 0.07759930537338 2.222972696958 0.4140489671548 0.39866078167337 0.3685479434569 7.3549151318271 0.24763741500197 1.1658522934187 0.17523641681023 0.59847490746164 1.396233823408 0.31165402260672 0.18051242097182 0.30625486050364 0.094581782627337 0.68799199242619 2.347530738164 0.38027872502601 0.71049912859248 1.1601505062534 0.4133451870027 0.19570194502306 0.024881558324566 1.274048051659 0.08528010923261 2.0190287828694 0.45511865738793 0.26133594089134 0.1306843314712 0.40984281950174 1.8387406834113 0.040368793091124 0.60395054991267 0.43121725461231 0.52850885025831 1.3162471710156 0.66143071667097 0.21128301776933 0.31357778546695 -0.0026220630429159 0.99743164497174 0.59775125185631 0.53652321948346 0.4511289508434 0.23655301963609 0.1659328619952 0.72796461843508 -0.0086058242285331 0.65418040920168 1.345193899772 0.10570393238422 0.21288299287407 1.0926027845356 1.2935110118077 1.5598611962684 0.46548477818853 1.0359148326293 0.46005236444804 0.19573701060138 1.7490736171669 0.23910309120533 0.38848568968694 0.17205796049833 9.2163077024558 1.0823012004322 0.44294695039348 0.55817243294819 0.27246144872639 3.821968758057 0.65480379556624 0.56737991291428 0.99954122814315 5.1566661399998 0.79444172299093 0.63321219111133 1.1358956620144 0.59759103466431 0.22409213193384 0.28232172614235 0.96707502937186 0.37620389591094 5.6305831436695 1.7681022364515 0.11062153361832 4.4576986816147 0.18013931197031 0.71132909668277 0.3575019140294 1.0449930134038 0.38376055896632 0.40828591968463 1.1894486936036 0.29061377836912 0.49933261912672 0.80305605358568 0.35057469400346 0.49347588454926 0.71982286469739 0.43602998647054 0.97599410352496 0.12579974206303 2.3027938466225 0.71268609632302 0.31669871032335 0.45446002019642 0.26828367390665 0.013857148617794 1.4732828192172 0.47031857681243 0.093250098338641 0.57830319798215 0.37036240297414 0.25305719613961 1.352522560254 0.11470524862915 0.45143903060236 0.39491103705492 1.5017662472161 1.8000859496682 0.2839776231553 0.86664190216155 1.9711550640519 0.87489399304746 0.35845000455976 0.13459436539602 0.28086801820544 0.89883256139912 0.38207642140429 0.72333237616755 0.93950602151398 0.3766908600241 0.14746240720647 0.10943597360644 -0.017177026575153 0.52862237044279 0.44710612998597 0.27194315578571 0.29694767422051 2.6240589207196 1.1391238426408 0.37271705878627 1.0050334058142 0.66523865057505 0.84889207324126 0.29515329773193 0.1836443252848 0.71231155204305 1.6104655226745 1.2730801575183 0.12444625947655 0.30076589907078 0.21255547116876 0.56147059709818 0.68945407942297 0.40736008068914 1.2928679410986 0.60277532582931 0.89676499140724 0.11065606852742 0.24263193311475 0.52613674258072 0.43664363744179 0.37914333061476 0.58109062269302 0.13816628139966 0.064908562644819 0.16905348243721 0.15219629882312 0.36366985630348 0.20613365714323 0.27583770741107 0.25974756559861 0.99931453226585 0.43741820417715 0.21595056115518 0.29128648527756 0.44264136524626 0.017945165897214 0.59009726559457 1.5841568635944 3.0731936926625 1.4443221022448 0.22592857357821 0.21548720089684 -0.060729338290961 0.17211500266472 -0.017302695146107 0.23367694907843 0.1928667701883 0.13876101434797 0.86106018886443 0.40439748933917 0.90883381173765 0.18249203007845 0.04786883832351 0.36922944880834 0.21606199392755 0.019744286087178 0.29529215089038 0.22329659721211 1.8180503302797 0.69543994633405 3.1663880920664 1.5011688059583 0.21434928904715 0.54330246061202 0.273805552699 0.46805462646472 0.14617952316071 0.00334907555658 0.39103281278683 0.16898327101385 0.010235602059121 2.5531731870004 0.86424353332283 0.16210776022184 0.86941420970064 0.67540543944384 0.2215498509391 0.95076090117577 0.44529802045801 -0.14848141351648 0.12761123398602 0.23585642141199 0.12403479855616 0.46353639602989 0.10291005904388 0.0074029398458526 -0.027193365675441 0.20998082847306 0.281928015368 0.23260727505084 0.18337097232934 0.099875229862316 0.19624376542617 2.6145392191726 1.0904832095033 0.32312828295978 0.47400820534682 -0.019510516557719 -0.013021526844522 1.1063141522183 1.0518529915719 0.13012933213227 0.078213447625547 -0.085449667104053 0.036826350547128 0.17796536006347 0.14366255499639 0.21098087383474 -0.28322550904917 0.93583221331279 0.12466139785089 0.50953310077746 0.43477574787533 1.1826918402333 1.0357565150024 -0.029975250619689 0.40456776918959 0.20062054924911 0.0050040469274286 0.046010156517719 0.058891921967848 0.22753353455531 0.22393426350718 0.21489991699698 0.10992364665906 -0.034831146788102 -0.055607174132238 0.39143686117295 0.34377004223478 0.13461137951391 -0.011110627476338 0.10152950203503 0.40704608687876 0.11450107258546 0.092517261428501 0.18021208948237 0.17878367366961 0.066597808043047 2.5879356587785 0.28775440206838 0.33644583290398 0.29109950325727 0.55746370567729 0.024269606428578 -0.0072228279368245 0.086277768816993 0.2730158142623 0.11926636176048 0.15083947618347 0.24873444488475 0.2906849134993 -0.049757391817585 0.039469609066032 0.2563379038334 0.80607742421055 0.099302451651403 -0.021059582419521 0.18649508171405 0.067526476978858 0.18641253558958 0.03707868304304 0.039476261657645 -0.03326281291378 0.017815145439403 0.055757549938041 0.40891551284191 0.17489184576691 -0.01615664347405 0.075640761668755 -0.088151284552601 0.072000856785152 0.091318095813779 1.2013838594282 0.73140295710924 0.22624595769959 0.1837214330743 0.071879187384496 0.13254895632331 -0.063158076397506 1.00176787268 -0.0068390585787164 -0.044223085221232 0.60526960248273 -0.089418094207725 1.3646375849975 1.6087721079246 0.062753688473957 0.046700842964207 0.10342716462153 -0.073302471947323 -0.027542939227102 -0.20246203050994 0.0030571116832251 0.11883401431073 0.022159580498034 0.97708028645776 0.01682911426065 0.22471312339865 3.5242923569535 0.13780464030718 0.052689511825741 -0.0093003153276691 -0.020609664567863 0.16126338028453 0.080899047030161 -0.14232704804317 -0.25988188050185 0.024657091901566 -0.31618213387276 -0.051863675739301 0.21736357364568 0.21460938501635 0.014097031055024 0.0017378287186923 0.33539916908181 0.10135081842926 0.49086390563481 0.21424550137923 0.05907731981535 -0.030158022276443 0.10301231830896 0.14264875826601 0.074290464181396 0.090483897265985 0.099953563219295 0.040666446210687 0.14437677186213 0.13328906943939 0.48085210574863 0.012640251533791 0.13576402577959 0.8933849808916 0.13685713836066 -0.022399945080516 -0.15788665408568 0.90082349313043 -0.34968324101908 0.28377402175992 -0.046819995278733 0.044636467058726 0.148693675931 0.16235826524375 0.095532805228235 0.50568801713726 0.02786316556765 -1.956053661983 0.19968707742943 -0.034598369304134 0.058308373785088 -0.093724140963419 0.023854025268744 0.14063677069436 -0.053852533213958 0.13766152416852 0.30632755856275 0.12075676773728 0.22782263736953 -0.46978569047606 0.012819538854167 0.18323119419563 0.38851046767863 0.10320189331918 0.11952834527669 -0.97773575032493 0.12060496221016 0.19090549887748 0.14560781044126 0.1135428731154 0.11788565415473 0.22289639732335 -0.081411812626445 0.23832810269891 -0.048672144092129 0.22584075636915 -0.11815459933552 -0.12938637970851 0.14851668847107 -0.0078755566553785 0.13419870455319 -0.080566832078578 0.11470632174757 0.077055095763086 -0.17597603822245 0.25299267872174 -0.023963434211453 0.1917404056359 0.1601698362384 -0.072228252706512 0.045696501195713 0.16786891046832 0.078314313764812 -0.0049294492328637 -0.05626444378213 0.13436602372064 0.012923621761798 0.61413074546561 0.50730313995658 0.1208004302705 0.082663807716006 -0.14263490607895 -0.044235225854973 0.14879319704563 0.087147994736613 -0.22014138601609 -0.05965223132586 0.14171703184168 0.072034020957188 -0.14390698734257 0.14786989719129 0.29147501159705 -0.099041772013474 0.057024400028107 0.13707350692337 -1.2738230999746 0.32988402613083 0.017149900004753 -0.014152450955556 -0.22865872178242 -0.1284412382182 0.24030334587951 1.2088434089527 -1.5694225715357 -2.5547040235328 0.93387818259686 0.027236454215348 0.14524318001273 -0.2266297257653 0.12867005778567 0.32025680054779 -0.44624920343735 1.1905553562974 0.76794560164997 0.28727448721678 -0.039296280672789 0.43121700748915 0.23864133726668 0.23810954583839 0.75436290794968 -0.06271111961534 0.18349555832686 0.57387116570376 -1.1248790180074 -0.14731312028287 0.68067921033669 -0.17623718760105 -0.49614265381049 0.66916061087608 0.6685535882096 0.10743054370099 -0.42968455779384 0.68482968699928 0.063046327443787 -0.093189444133212 -0.26041607039405 0.35782391455117 -0.071503637444613 -0.18093798365655 -0.93798849791913 0.91601890022049 -0.074252452727397 0.33058556700188 -0.77462410204797 -0.29020538179494 -0.084706112261568 0.8326431543441 0.50475386252547 0.47463222818555 0.78724798781611 -0.78862557830981 0.6167133833932 -0.60633216844769 0.072792918040387 -1.2242354431258 -0.022764707189122 -0.29568393656407 0.22399162488833 0.20989593418079 -0.0061174083439337 0.89040998435859 -0.076999285453653 -0.27225138214117 -0.038927076659529 -0.068996239569345 -0.15436504546442 -0.42588422431361 -0.11951541790542 -0.19055249284682 -0.0046678486078151 -0.12906108882238 0.089334485413422 -0.20934371228168 -0.11663851018268 -0.16141357001017 0.88058480671377 -1.4101021551476 -0.065398158701112 -0.28487671483135 0.79154779607787 0.12566222672793 0.32988253068452 -0.085877110929501 -0.16198366442007 0.042923769529935 -0.038770192346634 -0.18259940171094 0.044380285062865 -0.034552439918565 -1.226542423447 -1.2611072883728 0.061149378742315 0.53860646498285 -0.055550891821149 -0.018123927509287 -0.14090269920562 -0.38065222958077 -0.1696103042898 -0.074323577005875 -0.46173708976476 -0.4206407461482 -0.69777341480714 0.84913750893462 -1.1016102605157 -0.29563034817701 0.22992935310066 0.63921970397642 -2.4639595936949 -0.091063659312504 0.12975800497269 -0.89808685284048 -0.26694082137867 -0.078591659183276 -0.28121506084534 -0.53692173758875 0.028077987379147 -0.39483913698708 0.74164129535643 -1.6803350477505 -0.22498252302255 0.33291793433909 0.6173527344341 0.069363005049788 0.45240122000379 -0.33002857027728 0.16429123698476 -2.2255571270995 0.68396438243195 0.29268392570024 -1.651445256758 -0.0020918219525962 -0.12930061690599 0.6326921278163 0.20474255240154 0.088716078681166 -1.2512498132518 0.12284108254182 -0.081217049183472 -0.14620402517038 0.20749678373025 -0.21450522495068 0.023128704148648 -0.025982332591171 0.68133023121398 0.9159336396612 -0.36426376391606 -0.097583708643729 0.43513308404897 -0.072134566182505 0.61900872867303 0.24122194731044 -0.18700604181031 -0.038639866314617 0.52327668301705 0.54679272524624 0.8159174685221 0.86272686210139 0.84754983749901 -0.091204384023061 0.7192443097243 0.81478480812919 0.82783244949744 0.1633913293493 0.88614004626659 -0.49304032395056 0.79834702643236 0.80812205094111 0.43693995177534 0.62409956674795 -0.62309537493712 -0.038658409268926 -2.0221429368089 -1.4877495782041 -0.13362248611949 -0.78002586724502 0.3982206204453 0.56653503143642 0.57958319437172 0.51644577118525 0.67652141334031 0.80028540749917 0.83245521950505 0.81874720743081 -0.13718432757008 0.80670559964585 0.1839181761887 0.59399118590553 0.22194613372037 0.52904340510192 0.71090391473546 0.71555983343425 0.75155607662888 0.88262723978814 0.82104963907813 0.72252436373769 0.48157382085731 0.7267485731426 0.54238203099759 0.65502131107044 0.85488075458212 0.9166746303425 0.84538485382136 0.84670041646802 0.88520907663335 0.82227510095857 0.89109149317011 0.93144536350775 0.86653499880791 0.92786718641964 0.60612769901324 0.89206834765491 0.9339526848258 0.91931740490835 0.94211959711783 0.89879649907437 0.89514906422891 0.83221787880949 0.8528363328941 0.88014165573935 0.84973196938753 0.27323922227828 0.65699943187338 -2.1718742190819 0.31030282886127 0.30950181147422 0.60023107875299 0.97277419520043 0.64977936851198 0.62414046448609 0.72127479860436 0.46289161050443 0.84985906721109 0.86486696864832 0.89486378455016 0.94031149533627 0.88309414913412 0.39027022837829 0.79743141539721 0.88321286987548 -1.5791089010116 0.2799659758715 0.54455998741798 0.87335999679806 0.95483105076624 -1.2752973998279 0.37749916743309 0.59388779775873 0.035975266094906 0.72936250832926 0.9265796811459 0.90255747179418 0.8853157723306 0.8799961900404 0.56151202166921 0.76489277233113 0.79349760142874 0.89047926979275 0.79097389229813 0.87472336448577 0.90067842189618 0.71607837784798 -1.5948480667589 0.80633571453294 -0.87435937200128 0.35935521496734 0.84046237439946 0.35288011243815 0.92029256969569 0.85279820492866 0.93998944183764 0.95915032508784 0.96417887766887 0.95642242931656 0.9645945286714 0.57949692621993 0.60181828057687 -0.76488747489875 0.78334211061991 0.61372539169922 0.70014275515834 0.84588466982927 0.92307416038174 0.59111415853084 0.78292021327361 0.91065973671245 0.83087985467819 0.86289011031199 0.93554633610504 0.87144870040998 0.87883533799334 0.9123858355927 0.89247155635719 0.96429618330641 0.6231774518156 0.82112377152893 0.74660425298357 0.91755543553616 0.90043138355098 0.83661166690669 0.89438875343492 0.11798996579832 0.92932576764412 0.94078596351071 0.9477834837167 0.92792515266006 0.94050202415613 0.85032008889826 0.93682637121708 0.86303957885421 0.90819850276909 0.90953835073072 0.74227928836977 0.79353093780325 0.8567251900742 0.94392084874173 0.62793803027445 0.51922750037839 0.69217134573824 0.71256159439569 0.7787711031785 0.89603980618396 0.83840940525079 0.91555446766683 0.47022864374497 0.7238012815888 0.80692610395383 0.68525406836454 0.83453258175516 0.15030770473204 0.92330504075511 0.92843991154837 0.81327145506314 0.89360341705417 0.86192723631171 0.71728360815423 0.88266473036531 0.77319522682736 0.60135352729138 0.58279746657874 0.74570705782809 0.5998930583661 0.61226683157977 0.54176611296775 0.47932375802051 0.031185452283529 0.50735753718367 0.47128051547808 0.61685324745791 0.89663044381361 0.63474536861122 0.82167382203236 0.86278418905298 0.86895558612654 0.90843329341094 0.90093087905397 0.90823150274192 0.81482823592333 0.94290259616034 0.91931539293728 0.73010212304482 0.93112535517601 0.8361438294072 0.95791110592707 0.81688865846143 0.60922369370694 0.21935631703105 0.55517843474652 -0.24322362423801 -1.7369742083744 0.64195759868991 0.14415476144369 -0.39767940747425 -1.1624027807377 -1.375060427113 -0.1693875811184 0.83591583059671 0.93270003445778 0.7459972469586 0.63479378520263 0.70424522055094 0.55458733658137 -0.089223969038668 -0.29949759353258 0.70175107152172 0.87944689105826 0.72765195779188 0.5139492534868 0.84914740809256 0.81456885869776 0.0253559889914 0.14989888602682 0.66727641465464 0.88957687777604 0.63307105279634 0.79545757178303 0.91483754055601 0.79944565062748 0.94025883261684 0.88899694671492 0.69717705819226 0.86230758995937 0.82852316111799 0.95708530933133 0.85261300108586 0.9494029923673 0.90541575020104 0.83120259251816 0.32726841937392 0.67903502441492 0.94825042559535 0.39393544697052 0.88349773187578 0.80646944574504 0.80990291282666 -0.036102235371342 0.10566078174243 0.10837082236098 0.17358481920666 -0.0027748673127924 0.015914152928777 -0.35503604967398 -0.44046124747092 0.87449323057295 0.8011195379519 -1.4750962485276 -1.111263929305 0.75672954348649 -1.4266889663107 0.38417387219997 0.64978015567683 0.9249115733803 0.89853880903675 0.92070900706653 0.94418822748134 0.91814550466844 0.94913454543817 0.4274294000788 0.57409391310804 0.84786090867155 0.85816094318559 0.97305415468546 0.84318264931502 0.91083779213982 0.85722158461637 0.91743506628723 0.93185942713239 0.94459345074645 0.90898844430743 0.90977908297709 0.48067171617838 0.67247960036771 0.92314809721792 0.72975868757537 0.7627162475419 0.96529162853456 0.87935075664685 0.90288929324839 0.93921757984103 0.89074878748077 0.21951785238365 0.66471373418473 0.76391841423837 0.82569545732582 0.81197575846408 0.8681761283854 0.89535225662667 0.80776083289804 0.88012224931393 0.86780607849182 0.85277279767507 0.78570442518056 0.77332838187671 0.96301013704136 0.82767809825199 0.83518872220456 0.91671284830226 0.87801301984398 0.87655586519499 0.88440083007929 0.1138825290726 0.918476919955 0.95633738040885 0.96406283548938 0.83718866590896 0.65624781419935 0.85626433091567 0.87502757230147 0.89683795540069 0.87585994747462 0.83905445326663 0.82674597644861 0.84087661664968 0.8810644380303 0.87543110984292 0.64655629736957 0.83655003162083 0.88384329766436 0.91561714844086 0.88093320437162 0.93365502223378 0.90633698630964 0.77606000222616 0.91250908505024 0.87407907998471 0.78210263482082 0.97848971515355 0.82089872499717 0.90073907538882 0.65830177159708 0.80626168327492 0.95826978626052 0.94792761607825