# vtk DataFile Version 3.0
d-2__ created by libgimli-v1.5.0-1-g5991b6ac
ASCII
DATASET UNSTRUCTURED_GRID
POINTS 8550 double
-61.259661331734	17.62	0
-61.259661331734	-5.88	0
2.5096613317338	-5.88	0
2.5096613317338	19.27	0
-296.25966133173	17.62	0
-296.25966133173	-240.88	0
237.50966133173	19.27	0
237.50966133173	-239.23	0
0	17.62	0
-0.3125	17.6475	0
-0.9375	17.7025	0
-1.25	17.73	0
-1.5625	17.71	0
-2.1875	17.67	0
-2.5	17.65	0
-2.8125	17.655	0
-3.4375	17.665	0
-3.75	17.67	0
-4.0625	17.7075	0
-4.6875	17.7825	0
-5	17.82	0
-5.3125	17.805	0
-5.9375	17.775	0
-6.25	17.76	0
-6.5625	17.78	0
-7.1875	17.82	0
-7.5	17.84	0
-7.8125	17.8525	0
-8.4375	17.8775	0
-8.75	17.89	0
-9.0625	17.8975	0
-9.6875	17.9125	0
-10	17.92	0
-10.3125	17.905	0
-10.9375	17.875	0
-11.25	17.86	0
-11.5625	17.8425	0
-12.1875	17.8075	0
-12.5	17.79	0
-12.8125	17.7825	0
-13.4375	17.7675	0
-13.75	17.76	0
-14.0625	17.75	0
-14.6875	17.73	0
-15	17.72	0
-15.3125	17.655	0
-15.9375	17.525	0
-16.25	17.46	0
-16.5625	17.4475	0
-17.1875	17.4225	0
-17.5	17.41	0
-17.8125	17.4075	0
-18.4375	17.4025	0
-18.75	17.4	0
-19.0625	17.4375	0
-19.6875	17.5125	0
-20	17.55	0
-20.3125	17.5875	0
-20.9375	17.6625	0
-21.25	17.7	0
-21.5625	17.765	0
-22.1875	17.895	0
-22.5	17.96	0
-22.8125	18.0575	0
-23.4375	18.2525	0
-23.75	18.35	0
-24.0625	18.4525	0
-24.6875	18.6575	0
-25	18.76	0
-25.3125	18.76	0
-25.9375	18.76	0
-26.25	18.76	0
-26.5625	18.86	0
-27.1875	19.06	0
-27.5	19.16	0
-27.8125	19.1725	0
-28.4375	19.1975	0
-28.75	19.21	0
-29.0625	19.2075	0
-29.6875	19.2025	0
-30	19.2	0
-30.3125	19.1925	0
-30.9375	19.1775	0
-31.25	19.17	0
-31.5625	19.1825	0
-32.1875	19.2075	0
-32.5	19.22	0
-32.8125	19.225	0
-33.4375	19.235	0
-33.75	19.24	0
-34.0625	19.2475	0
-34.6875	19.2625	0
-35	19.27	0
-35.3125	19.2675	0
-35.9375	19.2625	0
-36.25	19.26	0
-36.5625	19.25	0
-37.1875	19.23	0
-37.5	19.22	0
-37.8125	19.2125	0
-38.4375	19.1975	0
-38.75	19.19	0
-39.0625	19.195	0
-39.6875	19.205	0
-40	19.21	0
-40.3125	19.2075	0
-40.9375	19.2025	0
-41.25	19.2	0
-41.5625	19.1875	0
-42.1875	19.1625	0
-42.5	19.15	0
-42.8125	19.1575	0
-43.4375	19.1725	0
-43.75	19.18	0
-44.0625	19.1625	0
-44.6875	19.1275	0
-45	19.11	0
-45.3125	19.105	0
-45.9375	19.095	0
-46.25	19.09	0
-46.5625	19.095	0
-47.1875	19.105	0
-47.5	19.11	0
-47.8125	19.105	0
-48.4375	19.095	0
-48.75	19.09	0
-49.0625	19.095	0
-49.6875	19.105	0
-50	19.11	0
-50.3125	19.1075	0
-50.9375	19.1025	0
-51.25	19.1	0
-51.5625	19.1325	0
-52.1875	19.1975	0
-52.5	19.23	0
-52.8125	19.22	0
-53.4375	19.2	0
-53.75	19.19	0
-54.0625	19.1825	0
-54.6875	19.1675	0
-55	19.16	0
-55.3125	19.17	0
-55.9375	19.19	0
-56.25	19.2	0
-56.5625	19.185	0
-57.1875	19.155	0
-57.5	19.14	0
-57.8125	19.1725	0
-58.4375	19.2375	0
-58.75	19.27	0
-15.480769230769	17.62	0
-20.583333333333	17.62	0
2.5096613317338	3.27	0
-16.245169334133	19.27	0
-43	19.27	0
-7.7403846153846	17.62	0
-18.583333333333	17.62	0
-25.622584667067	19.27	0
-6.8677540011996	19.27	0
-50.875	19.27	0
-39	19.27	0
-11.610576923077	17.62	0
-17.480769230769	17.62	0
-2.1790463347329	19.27	0
-46.9375	19.27	0
-37	19.27	0
-13.480769230769	17.62	0
-16.480769230769	17.62	0
-44.96875	19.27	0
-38	19.27	0
-36	19.27	0
-14.480769230769	17.62	0
-15.980769230769	17.62	0
-43.984375	19.27	0
-38.5	19.27	0
-37.5	19.27	0
-36.5	19.27	0
-35.5	19.27	0
-13.980769230769	17.62	0
-14.980769230769	17.62	0
-38.25	19.27	0
-37.25	19.27	0
-36.75	19.27	0
-36.25	19.27	0
-35.75	19.27	0
-35.25	19.27	0
-15.230769230769	17.62	0
-36.625	19.27	0
-15.355769230769	17.62	0
-15.293269230769	17.62	0
-43.125	19.165	0
-3.8701923076923	17.62	0
-19.583333333333	17.62	0
-20.9338770006	19.27	0
-31	19.27	0
-11.556461667666	19.27	0
-54.8125	19.27	0
-41	19.27	0
-9.6754807692308	17.62	0
-18.032051282051	17.62	0
-48.90625	19.27	0
-46.875	19.1	0
-36.875	19.24	0
-12.545673076923	17.62	0
-16.980769230769	17.62	0
-45.953125	19.27	0
-38.125	19.205	0
-36.09375	19.26125	0
-14.375	17.74	0
-43.4921875	19.27	0
-44.4765625	19.27	0
-38.75	19.27	0
-37.75	19.27	0
-36.40625	19.255	0
-35.625	19.265	0
-13.730769230769	17.62	0
-14.730769230769	17.62	0
-37.125	19.27	0
-37.34375	19.225	0
-35.375	19.27	0
-35.875	19.27	0
-35.124996000192	19.269000031998	0
-15.15625	17.6875	0
-36.5625	19.27	0
-15.41957888509	17.632727591901	0
-19.083333333333	17.62	0
-5.8052884615385	17.62	0
-23.278230833833	19.27	0
-28.311292333533	19.27	0
-52.84375	19.27	0
-42	19.27	0
-40	19.27	0
-10.643028846154	17.62	0
-37.03125	19.235	0
-13.013221153846	17.62	0
-37.96875	19.20875	0
-38.28125	19.20125	0
-36.015625	19.261875	0
-44.72265625	19.27	0
-36.484375	19.2525	0
-35.46875	19.26625	0
-35.78125	19.26375	0
-42.5	19.27	0
-41.5	19.27	0
-39.5	19.27	0
-37.109375	19.2325	0
-42.25	19.27	0
-41.25	19.27	0
-39.75	19.27	0
-39.25	19.27	0
-1.9350961538462	17.62	0
-3.90625	17.68875	0
-20.083333333333	17.62	0
-33	19.27	0
-9.212107834433	19.27	0
-56.78125	19.27	0
-41.09375	19.20125	0
-8.7079326923077	17.62	0
-47.921875	19.27	0
-49.890625	19.27	0
-36.71875	19.245	0
-36.875	19.27	0
-12.078125	17.62	0
-45.4609375	19.27	0
-46.4453125	19.27	0
-38.125	19.27	0
-36.125	19.27	0
-43.24609375	19.27	0
-43.73828125	19.27	0
-44.375	19.145	0
-37.875	19.27	0
-37.65625	19.21625	0
-36.375	19.27	0
-35.625	19.27	0
-51.859375	19.27	0
-26.9669385003	19.27	0
-37.265625	19.2275	0
-37.375	19.27	0
-35.218748000096	19.268250015999	0
-35.3125	19.27	0
-35.9375	19.27	0
-35.125	19.27	0
-15.105769230769	17.62	0
-15.366039442545	17.643863795951	0
-15.418269230769	17.62	0
-6.7728365384615	17.62	0
-4.8377403846154	17.62	0
-29.655646166767	19.27	0
-24.45040775045	19.27	0
-28.125	19.185	0
-53.828125	19.27	0
-41.875	19.175	0
-40.5	19.27	0
-11.126802884615	17.62	0
-36.953125	19.2375	0
-13.125	17.775	0
-35.859375	19.263125	0
-35.703125	19.264375	0
-35.9765625	19.2621875	0
-35.546875	19.265625	0
-35.390625	19.266875	0
-35.4375	19.27	0
-35.8125	19.27	0
-42.75	19.27	0
-41.75	19.27	0
-39.375	19.2	0
-32	19.27	0
-19.833333333333	17.62	0
-2.9026442307692	17.62	0
-39.84375	19.2075	0
-1	17.62	0
-1.875	17.69	0
-55.796875	19.27	0
-9.1917067307692	17.62	0
-47.4296875	19.27	0
-49.3984375	19.27	0
-36.640625	19.2475	0
-36.796875	19.2425	0
-31.5	19.27	0
-19.958333333333	17.62	0
-2.4188701923077	17.62	0
-3.3864182692308	17.62	0
-1.4675480769231	17.62	0
-56.2890625	19.27	0
-55.3046875	19.27	0
-20.333333333333	17.62	0
-20.15625	17.56875	0
-34	19.27	0
-33.125	19.23	0
-57.75	19.27	0
-56.875	19.17	0
-41.125	19.27	0
-8.2241586538462	17.62	0
-48.4140625	19.27	0
-50.3828125	19.27	0
-36.6875	19.27	0
-32.5	19.27	0
-39.53125	19.2025	0
-35.78125	19.27	0
-35.84375	19.27	0
-36.0625	19.27	0
-36.171875	19.260625	0
-35.40625	19.27	0
-35.46875	19.27	0
-51.3671875	19.27	0
-36.4375	19.27	0
-37.625	19.27	0
-36.328125	19.2575	0
-52.3515625	19.27	0
-51.875	19.165	0
-27.639115416917	19.27	0
-35.5078125	19.2659375	0
-40.25	19.27	0
-35.265624000048	19.267875008	0
-40.75	19.27	0
-28.98346925015	19.27	0
-35.1875	19.27	0
-5.3215144230769	17.62	0
-7.2566105769231	17.62	0
-6.2890625	17.62	0
-6.875	17.8	0
-4.3539663461538	17.62	0
-30.327823083383	19.27	0
-53.3359375	19.27	0
-28.28125	19.19125	0
-54.3203125	19.27	0
-40.625	19.205	0
-35.99609375	19.26203125	0
-36.9375	19.27	0
-35.7421875	19.2640625	0
-35.8984375	19.2628125	0
-35.6875	19.27	0
-35.96875	19.27	0
-35.5625	19.27	0
-35.3515625	19.2671875	0
-35.4296875	19.2665625	0
-35.8203125	19.2634375	0
-39.21875	19.1975	0
-41.71875	19.18125	0
-39.375	19.27	0
-31.875	19.195	0
-19.84375	17.53125	0
-3.125	17.66	0
-39.875	19.27	0
-0.5	17.62	0
-2.03125	17.68	0
-55.625	19.18	0
-56.04296875	19.27	0
-1.7013221153846	17.62	0
-49.375	19.1	0
-2.6607572115385	17.62	0
-36.8125	19.27	0
-31.25	19.27	0
-2.1769831730769	17.62	0
-2.34375	17.66	0
-3.6283052884615	17.62	0
-1.2337740384615	17.62	0
-56.53515625	19.27	0
-55.05859375	19.27	0
-20.459223728522	17.605106847423	0
-34.5	19.27	0
-33.5	19.27	0
-57.265625	19.27	0
-28.647380791842	19.27	0
-35.21875	19.27	0
-35.984375	19.27	0
-35.53125	19.27	0
-35.37109375	19.26703125	0
-35.41015625	19.26671875	0
-35.44921875	19.26640625	0
-35.80078125	19.26359375	0
-35.83984375	19.26328125	0
-2.7817007211538	17.62	0
-3.7492487980769	17.62	0
-33.25	19.27	0
-57.0234375	19.27	0
-28.815425020996	19.27	0
-28.479336562687	19.27	0
-35.439453125	19.266484375	0
-20.208333333333	17.62	0
-33.90625	19.24375	0
-32.96875	19.2275	0
-58.25	19.27	0
-35.242186000072	19.268062511999	0
-40.375	19.27	0
-52.10546875	19.27	0
-52.59765625	19.27	0
-36.1328125	19.2609375	0
-32.25	19.27	0
-32.75	19.27	0
-36.03125	19.27	0
-36.09375	19.27	0
-35.859375	19.27	0
-36.0546875	19.2615625	0
-36.1875	19.27	0
-35.390625	19.27	0
-36.40625	19.27	0
-51.61328125	19.27	0
-36.4453125	19.25375	0
-36.3671875	19.25625	0
-36.3125	19.27	0
-52.34375	19.21375	0
-27.303026958608	19.27	0
-27.975203875225	19.27	0
-35.48828125	19.26609375	0
-40.15625	19.20875	0
-35.28125	19.27	0
-29.319557708458	19.27	0
-28.90625	19.20875	0
-35.171872000144	19.268625023999	0
-40.78125	19.20375	0
-54.07421875	19.27	0
-53.58203125	19.27	0
-4.1120793269231	17.62	0
-4.375	17.745	0
-29.991734625075	19.27	0
-53.125	19.21	0
-54.56640625	19.27	0
-54.375	19.175	0
-40.46875	19.20625	0
-40.625	19.27	0
-35.71875	19.27	0
-35.87890625	19.26296875	0
-35.76171875	19.26390625	0
-35.90625	19.27	0
-35.6640625	19.2646875	0
-35.95703125	19.26234375	0
-35.5859375	19.2653125	0
-35.34375	19.27	0
-35.421875	19.27	0
-35.828125	19.27	0
-0.75	17.62	0
-2.96875	17.6575	0
-32.03125	19.20125	0
-31.75	19.27	0
-3.28125	17.6625	0
-3.14453125	17.62	0
-0.25	17.62	0
-0.625	17.675	0
-55.78125	19.185	0
-55.55078125	19.27	0
-56.09375	19.195	0
-1.71875	17.7	0
-2.5398137019231	17.62	0
-2.65625	17.6525	0
-3.5073617788462	17.62	0
-2.421875	17.655	0
-2.0560396634615	17.62	0
-2.2979266826923	17.62	0
-3.59375	17.6675	0
-33.75	19.27	0
-34.25	19.27	0
-34.75	19.27	0
-20.458333333333	17.62	0
-34.375	19.255	0
-33.59375	19.2375	0
-57.5078125	19.27	0
-28.59375	19.20375	0
-35.515625	19.27	0
-35.546875	19.27	0
-35.52734375	19.26578125	0
-35.380859375	19.266953125	0
-35.400390625	19.266796875	0
-35.453125	19.27	0
-35.796875	19.27	0
-33.125	19.27	0
-33.375	19.27	0
-33.28125	19.2325	0
-0.46875	17.66125	0
[...]
CELL_DATA 14828
SCALARS Marker double 1
LOOKUP_TABLE default
0 0 0 0 202 202 202 202 -1 -1 -1 -1 1 1 1 1 203 203 203 203 204 204 204 204 -1 -1 -1 -1 -1 -1 -1 -1 -1 -1 -1 -1 205 205 205 205 206 206 206 206 -1 -1 -1 -1 -1 -1 -1 -1 207 207 207 207 -1 -1 -1 -1 -1 -1 -1 -1 -1 -1 -1 -1 -1 -1 -1 -1 -1 -1 -1 -1 -1 -1 -1 -1 -1 -1 -1 -1 -1 -1 -1 -1 -1 -1 -1 -1 -1 -1 -1 -1 -1 -1 -1 -1 -1 -1 -1 -1 -1 -1 -1 -1 -1 -1 -1 -1 -1 -1 -1 -1 -1 -1 -1 -1 -1 -1 -1 -1 -1 -1 -1 -1 -1 -1 -1 -1 -1 -1 -1 -1 -1 -1 -1 -1 208 208 208 208 -1 -1 -1 -1 -1 -1 -1 -1 -1 -1 -1 -1 -1 -1 -1 -1 -1 -1 -1 -1 -1 -1 -1 -1 209 209 209 209 210 210 210 210 -1 -1 -1 -1 -1 -1 -1 -1 -1 -1 -1 -1 -1 -1 -1 -1 -1 -1 -1 -1 -1 -1 -1 -1 -1 -1 -1 -1 -1 -1 -1 -1 -1 -1 -1 -1 -1 -1 -1 -1 -1 -1 -1 -1 -1 -1 -1 -1 -1 -1 -1 -1 -1 -1 -1 -1 -1 -1 -1 -1 211 211 211 211 212 212 212 212 213 213 213 213 -1 -1 -1 -1 214 214 214 214 215 215 215 215 -1 -1 -1 -1 216 216 216 216 -1 -1 -1 -1 -1 -1 -1 -1 -1 -1 -1 -1 -1 -1 -1 -1 -1 -1 -1 -1 217 217 217 217 -1 -1 -1 -1 -1 -1 -1 -1 218 218 218 218 -1 -1 -1 -1 -1 -1 -1 -1 -1 -1 -1 -1 -1 -1 -1 -1 -1 -1 -1 -1 -1 -1 -1 -1 -1 -1 -1 -1 -1 -1 -1 -1 -1 -1 -1 -1 -1 -1 -1 -1 -1 -1 -1 -1 219 219 219 219 -1 -1 -1 -1 -1 -1 -1 -1 -1 -1 -1 -1 -1 -1 -1 -1 -1 -1 -1 -1 -1 -1 -1 -1 -1 -1 -1 -1 -1 -1 -1 -1 -1 -1 -1 -1 -1 -1 -1 -1 -1 -1 -1 -1 -1 -1 -1 -1 -1 -1 -1 -1 -1 -1 -1 -1 -1 -1 -1 -1 -1 -1 -1 -1 -1 -1 -1 -1 -1 -1 -1 -1 -1 -1 -1 -1 -1 -1 -1 -1 -1 -1 -1 -1 -1 -1 -1 -1 -1 -1 -1 -1 220 220 220 220 -1 -1 -1 -1 -1 -1 -1 -1 221 221 221 221 222 222 222 222 223 223 223 223 -1 -1 -1 -1 224 224 224 224 225 225 225 225 226 226 226 226 -1 -1 -1 -1 -1 -1 -1 -1 227 227 227 227 -1 -1 -1 -1 228 228 228 228 229 229 229 229 -1 -1 -1 -1 -1 -1 -1 -1 -1 -1 -1 -1 230 230 230 230 -1 -1 -1 -1 231 231 231 231 -1 -1 -1 -1 232 232 232 232 -1 -1 -1 -1 -1 -1 -1 -1 233 233 233 233 234 234 234 234 235 235 235 235 236 236 236 236 -1 -1 -1 -1 237 237 237 237 -1 -1 -1 -1 238 238 238 238 -1 -1 -1 -1 2 2 2 2 -1 -1 -1 -1 -1 -1 -1 -1 239 239 239 239 -1 -1 -1 -1 240 240 240 240 -1 -1 -1 -1 241 241 241 241 -1 -1 -1 -1 242 242 242 242 243 243 243 243 244 244 244 244 -1 -1 -1 -1 -1 -1 -1 -1 245 245 245 245 -1 -1 -1 -1 246 246 246 246 -1 -1 -1 -1 247 247 247 247 248 248 248 248 249 249 249 249 -1 -1 -1 -1 -1 -1 -1 -1 -1 -1 -1 -1 250 250 250 250 -1 -1 -1 -1 -1 -1 -1 -1 -1 -1 -1 -1 251 251 251 251 -1 -1 -1 -1 252 252 252 252 253 253 253 253 254 254 254 254 255 255 255 255 256 256 256 256 257 257 257 257 258 258 258 258 -1 -1 -1 -1 259 259 259 259 -1 -1 -1 -1 260 260 260 260 -1 -1 -1 -1 261 261 261 261 262 262 262 262 -1 -1 -1 -1 -1 -1 -1 -1 263 263 263 263 -1 -1 -1 -1 3 3 3 3 -1 -1 -1 -1 -1 -1 -1 -1 264 264 264 264 265 265 265 265 -1 -1 -1 -1 -1 -1 -1 -1 -1 -1 -1 -1 266 266 266 266 267 267 267 267 -1 -1 -1 -1 268 268 268 268 269 269 269 269 -1 -1 -1 -1 -1 -1 -1 -1 270 270 270 270 -1 -1 -1 -1 271 271 271 271 272 272 272 272 -1 -1 -1 -1 -1 -1 -1 -1 273 273 273 273 274 274 274 274 275 275 275 275 276 276 276 276 -1 -1 -1 -1 277 277 277 277 -1 -1 -1 -1 -1 -1 -1 -1 278 278 278 278 279 279 279 279 -1 -1 -1 -1 280 280 280 280 281 281 281 281 -1 -1 -1 -1 -1 -1 -1 -1 282 282 282 282 283 283 283 283 284 284 284 284 -1 -1 -1 -1 -1 -1 -1 -1 285 285 285 285 286 286 286 286 4 4 4 4 -1 -1 -1 -1 287 287 287 287 288 288 288 288 289 289 289 289 290 290 290 290 291 291 291 291 292 292 292 292 -1 -1 -1 -1 293 293 293 293 294 294 294 294 295 295 295 295 296 296 296 296 297 297 297 297 298 298 298 298 299 299 299 299 300 300 300 300 301 301 301 301 302 302 302 302 303 303 303 303 -1 -1 -1 -1 -1 -1 -1 -1 -1 -1 -1 -1 -1 -1 -1 -1 304 304 304 304 -1 -1 -1 -1 305 305 305 305 306 306 306 306 -1 -1 -1 -1 307 307 307 307 308 308 308 308 309 309 309 309 -1 -1 -1 -1 -1 -1 -1 -1 310 310 310 310 311 311 311 311 -1 -1 -1 -1 -1 -1 -1 -1 -1 -1 -1 -1 312 312 312 312 313 313 313 313 -1 -1 -1 -1 314 314 314 314 315 315 315 315 -1 -1 -1 -1 316 316 316 316 317 317 317 317 318 318 318 318 319 319 319 319 -1 -1 -1 -1 -1 -1 -1 -1 320 320 320 320 321 321 321 321 5 5 5 5 322 322 322 322 -1 -1 -1 -1 323 323 323 323 -1 -1 -1 -1 6 6 6 6 -1 -1 -1 -1 324 324 324 324 325 325 325 325 -1 -1 -1 -1 326 326 326 326 -1 -1 -1 -1 327 327 327 327 -1 -1 -1 -1 328 328 328 328 329 329 329 329 -1 -1 -1 -1 -1 -1 -1 -1 -1 -1 -1 -1 330 330 330 330 -1 -1 -1 -1 -1 -1 -1 -1 331 331 331 331 -1 -1 -1 -1 -1 -1 -1 -1 -1 -1 -1 -1 -1 -1 -1 -1 -1 -1 -1 -1 -1 -1 -1 -1 -1 -1 -1 -1 -1 -1 -1 -1 -1 -1 -1 -1 -1 -1 -1 -1 -1 -1 -1 -1 -1 -1 -1 -1 -1 -1 -1 -1 -1 -1 -1 -1 -1 -1 -1 -1 -1 -1 -1 -1 332 332 332 332 -1 -1 -1 -1 333 333 333 333 -1 -1 -1 -1 334 334 334 334 -1 -1 -1 -1 335 335 335 335 336 336 336 336 -1 -1 -1 -1 -1 -1 -1 -1 337 337 337 337 -1 -1 -1 -1 -1 -1 -1 -1 -1 -1 -1 -1 -1 -1 -1 -1 -1 -1 -1 -1 338 338 338 338 -1 -1 -1 -1 -1 -1 -1 -1 -1 -1 -1 -1 -1 -1 -1 -1 -1 -1 -1 -1 -1 -1 -1 -1 -1 -1 -1 -1 -1 -1 -1 -1 -1 -1 -1 -1 -1 -1 -1 -1 -1 -1 -1 -1 -1 -1 -1 -1 -1 -1 -1 -1 339 339 339 339 -1 -1 -1 -1 -1 -1 -1 -1 -1 -1 -1 -1 -1 -1 -1 -1 -1 -1 -1 -1 -1 -1 -1 -1 340 340 340 340 -1 -1 -1 -1 341 341 341 341 -1 -1 -1 -1 342 342 342 342 -1 -1 -1 -1 343 343 343 343 -1 -1 -1 -1 344 344 344 344 -1 -1 -1 -1 345 345 345 345 346 346 346 346 347 347 347 347 -1 -1 -1 -1 -1 -1 -1 -1 -1 -1 -1 -1 348 348 348 348 -1 -1 -1 -1 -1 -1 -1 -1 349 349 349 349 -1 -1 -1 -1 -1 -1 -1 -1 -1 -1 -1 -1 -1 -1 -1 -1 -1 -1 -1 -1 -1 -1 -1 -1 -1 -1 -1 -1 -1 -1 -1 -1 -1 -1 -1 -1 -1 -1 -1 -1 -1 -1 -1 -1 350 350 350 350 351 351 351 351 -1 -1 -1 -1 352 352 352 352 -1 -1 -1 -1 -1 -1 -1 -1 353 353 353 353 -1 -1 -1 -1 354 354 354 354 -1 -1 -1 -1 -1 -1 -1 -1 355 355 355 355 -1 -1 -1 -1 -1 -1 -1 -1 -1 -1 -1 -1 -1 -1 -1 -1 -1 -1 -1 -1 356 356 356 356 357 357 357 357 -1 -1 -1 -1 358 358 358 358 -1 -1 -1 -1 359 359 359 359 -1 -1 -1 -1 360 360 360 360 -1 -1 -1 -1 -1 -1 -1 -1 -1 -1 -1 -1 361 361 361 361 -1 -1 -1 -1 362 362 362 362 -1 -1 -1 -1 363 363 363 363 364 364 364 364 -1 -1 -1 -1 -1 -1 -1 -1 -1 -1 -1 -1 365 365 365 365 -1 -1 -1 -1 -1 -1 -1 -1 -1 -1 -1 -1 -1 -1 -1 -1 366 366 366 366 -1 -1 -1 -1 -1 -1 -1 -1 -1 -1 -1 -1 -1 -1 -1 -1 -1 -1 -1 -1 -1 -1 -1 -1 -1 -1 -1 -1 -1 -1 -1 -1 -1 -1 -1 -1 -1 -1 -1 -1 -1 -1 -1 -1 -1 -1 -1 -1 -1 -1 -1 -1 367 367 367 367 -1 -1 -1 -1 -1 -1 -1 -1 -1 -1 -1 -1 -1 -1 -1 -1 368 368 368 368 -1 -1 -1 -1 369 369 369 369 -1 -1 -1 -1 370 370 370 370 -1 -1 -1 -1 371 371 371 371 -1 -1 -1 -1 372 372 372 372 -1 -1 -1 -1 373 373 373 373 -1 -1 -1 -1 374 374 374 374 -1 -1 -1 -1 375 375 375 375 -1 -1 -1 -1 -1 -1 -1 -1 -1 -1 -1 -1 -1 -1 -1 -1 -1 -1 -1 -1 -1 -1 -1 -1 -1 -1 -1 -1 -1 -1 -1 -1 -1 -1 -1 -1 -1 -1 -1 -1 -1 -1 -1 -1 -1 -1 -1 -1 -1 -1 -1 -1 -1 -1 -1 -1 -1 -1 -1 -1 376 376 376 376 377 377 377 377 -1 -1 -1 -1 378 378 378 378 -1 -1 -1 -1 -1 -1 -1 -1 379 379 379 379 -1 -1 -1 -1 380 380 380 380 -1 -1 -1 -1 -1 -1 -1 -1 -1 -1 -1 -1 381 381 381 381 -1 -1 -1 -1 -1 -1 -1 -1 382 382 382 382 -1 -1 -1 -1 -1 -1 -1 -1 383 383 383 383 384 384 384 384 -1 -1 -1 -1 385 385 385 385 -1 -1 -1 -1 386 386 386 386 -1 -1 -1 -1 387 387 387 387 -1 -1 -1 -1 -1 -1 -1 -1 -1 -1 -1 -1 388 388 388 388 -1 -1 -1 -1 389 389 389 389 390 390 390 390 -1 -1 -1 -1 391 391 391 391 -1 -1 -1 -1 -1 -1 -1 -1 -1 -1 -1 -1 -1 -1 -1 -1 -1 -1 -1 -1 -1 -1 -1 -1 -1 -1 -1 -1 -1 -1 -1 -1 392 392 392 392 -1 -1 -1 -1 393 393 393 393 -1 -1 -1 -1 394 394 394 394 -1 -1 -1 -1 395 395 395 395 396 396 396 396 -1 -1 -1 -1 397 397 397 397 -1 -1 -1 -1 398 398 398 398 399 399 399 399 -1 -1 -1 -1 -1 -1 -1 -1 -1 -1 -1 -1 -1 -1 -1 -1 -1 -1 -1 -1 -1 -1 -1 -1 400 400 400 400 401 401 401 401 -1 -1 -1 -1 -1 -1 -1 -1 -1 -1 -1 -1 -1 -1 -1 -1 -1 -1 -1 -1 -1 -1 -1 -1 -1 -1 -1 -1 -1 -1 -1 -1 -1 -1 -1 -1 -1 -1 -1 -1 -1 -1 -1 -1 -1 -1 -1 -1 402 402 402 402 403 403 403 403 -1 -1 -1 -1 -1 -1 -1 -1 -1 -1 -1 -1 404 404 404 404 405 405 405 405 -1 -1 -1 -1 -1 -1 -1 -1 -1 -1 -1 -1 -1 -1 -1 -1 406 406 406 406 -1 -1 -1 -1 407 407 407 407 -1 -1 -1 -1 408 408 408 408 -1 -1 -1 -1 -1 -1 -1 -1 -1 -1 -1 -1 -1 -1 -1 -1 -1 -1 -1 -1 -1 -1 -1 -1 -1 -1 -1 -1 -1 -1 -1 -1 -1 -1 -1 -1 -1 -1 -1 -1 -1 -1 -1 -1 -1 -1 -1 -1 -1 -1 -1 -1 -1 -1 -1 -1 -1 -1 -1 -1 409 409 409 409 -1 -1 -1 -1 410 410 410 410 -1 -1 -1 -1 411 411 411 411 412 412 412 412 413 413 413 413 -1 -1 -1 -1 414 414 414 414 -1 -1 -1 -1 415 415 415 415 -1 -1 -1 -1 -1 -1 -1 -1 -1 -1 -1 -1 -1 -1 -1 -1 -1 -1 -1 -1 -1 -1 -1 -1 416 416 416 416 -1 -1 -1 -1 417 417 417 417 -1 -1 -1 -1 418 418 418 418 -1 -1 -1 -1 419 419 419 419 -1 -1 -1 -1 420 420 420 420 -1 -1 -1 -1 421 421 421 421 -1 -1 -1 -1 422 422 422 422 -1 -1 -1 -1 423 423 423 423 -1 -1 -1 -1 424 424 424 424 425 425 425 425 426 426 426 426 427 427 427 427 -1 -1 -1 -1 428 428 428 428 429 429 429 429 -1 -1 -1 -1 430 430 430 430 -1 -1 -1 -1 -1 -1 -1 -1 -1 -1 -1 -1 -1 -1 -1 -1 -1 -1 -1 -1 -1 -1 -1 -1 -1 -1 -1 -1 431 431 431 431 432 432 432 432 433 433 433 433 434 434 434 434 -1 -1 -1 -1 -1 -1 -1 -1 435 435 435 435 -1 -1 -1 -1 436 436 436 436 -1 -1 -1 -1 -1 -1 -1 -1 -1 -1 -1 -1 437 437 437 437 -1 -1 -1 -1 -1 -1 -1 -1 438 438 438 438 439 439 439 439 440 440 440 440 -1 -1 -1 -1 -1 -1 -1 -1 -1 -1 -1 -1 -1 -1 -1 -1 -1 -1 -1 -1 441 441 441 441 -1 -1 -1 -1 442 442 442 442 -1 -1 -1 -1 -1 -1 -1 -1 -1 -1 -1 -1 -1 -1 -1 -1 443 443 443 443 444 444 444 444 445 445 445 445 -1 -1 -1 -1 -1 -1 -1 -1 -1 -1 -1 -1 446 446 446 446 -1 -1 -1 -1 -1 -1 -1 -1 -1 -1 -1 -1 -1 -1 -1 -1 -1 -1 -1 -1 -1 -1 -1 -1 -1 -1 -1 -1 -1 -1 -1 -1 -1 -1 -1 -1 -1 -1 -1 -1 -1 -1 -1 -1 -1 -1 -1 -1 -1 -1 -1 -1 -1 -1 -1 -1 -1 -1 -1 -1 -1 -1 -1 -1 -1 -1 -1 -1 -1 -1 -1 -1 -1 -1 -1 -1 -1 -1 -1 -1 -1 -1 -1 -1 -1 -1 -1 -1 447 447 447 447 -1 -1 -1 -1 448 448 448 448 -1 -1 -1 -1 449 449 449 449 -1 -1 -1 -1 450 450 450 450 451 451 451 451 452 452 452 452 -1 -1 -1 -1 453 453 453 453 -1 -1 -1 -1 454 454 454 454 -1 -1 -1 -1 455 455 455 455 -1 -1 -1 -1 456 456 456 456 -1 -1 -1 -1 457 457 457 457 -1 -1 -1 -1 458 458 458 458 -1 -1 -1 -1 459 459 459 459 460 460 460 460 461 461 461 461 462 462 462 462 -1 -1 -1 -1 463 463 463 463 464 464 464 464 465 465 465 465 466 466 466 466 467 467 467 467 468 468 468 468 -1 -1 -1 -1 -1 -1 -1 -1 -1 -1 -1 -1 -1 -1 -1 -1 -1 -1 -1 -1 -1 -1 -1 -1 -1 -1 -1 -1 469 469 469 469 470 470 470 470 -1 -1 -1 -1 -1 -1 -1 -1 -1 -1 -1 -1 -1 -1 -1 -1 -1 -1 -1 -1 -1 -1 -1 -1 -1 -1 -1 -1 471 471 471 471 -1 -1 -1 -1 -1 -1 -1 -1 472 472 472 472 473 473 473 473 474 474 474 474 -1 -1 -1 -1 -1 -1 -1 -1 -1 -1 -1 -1 -1 -1 -1 -1 -1 -1 -1 -1 -1 -1 -1 -1 -1 -1 -1 -1 -1 -1 -1 -1 -1 -1 -1 -1 475 475 475 475 -1 -1 -1 -1 -1 -1 -1 -1 -1 -1 -1 -1 -1 -1 -1 -1 476 476 476 476 -1 -1 -1 -1 -1 -1 -1 -1 -1 -1 -1 -1 -1 -1 -1 -1 -1 -1 -1 -1 -1 -1 -1 -1 -1 -1 -1 -1 -1 -1 -1 -1 -1 -1 -1 -1 -1 -1 -1 -1 -1 -1 -1 -1 -1 -1 -1 -1 -1 -1 -1 -1 477 477 477 477 -1 -1 -1 -1 478 478 478 478 -1 -1 -1 -1 479 479 479 479 480 480 480 480 481 481 481 481 -1 -1 -1 -1 482 482 482 482 -1 -1 -1 -1 483 483 483 483 -1 -1 -1 -1 484 484 484 484 -1 -1 -1 -1 485 485 485 485 486 486 486 486 -1 -1 -1 -1 487 487 487 487 488 488 488 488 -1 -1 -1 -1 489 489 489 489 490 490 490 490 491 491 491 491 492 492 492 492 493 493 493 493 494 494 494 494 495 495 495 495 496 496 496 496 497 497 497 497 -1 -1 -1 -1 -1 -1 -1 -1 -1 -1 -1 -1 -1 -1 -1 -1 -1 -1 -1 -1 -1 -1 -1 -1 -1 -1 -1 -1 -1 -1 -1 -1 -1 -1 -1 -1 -1 -1 -1 -1 -1 -1 -1 -1 -1 -1 -1 -1 -1 -1 -1 -1 -1 -1 -1 -1 -1 -1 -1 -1 -1 -1 -1 -1 -1 -1 -1 -1 -1 -1 -1 -1 -1 -1 -1 -1 -1 -1 -1 -1 -1 -1 -1 -1 -1 -1 -1 -1 498 498 498 498 -1 -1 -1 -1 -1 -1 -1 -1 -1 -1 -1 -1 -1 -1 -1 -1 -1 -1 -1 -1 -1 -1 -1 -1 -1 -1 -1 -1 -1 -1 -1 -1 -1 -1 -1 -1 -1 -1 -1 -1 -1 -1 -1 -1 -1 -1 -1 -1 499 499 499 499 500 500 500 500 501 501 501 501 -1 -1 -1 -1 502 502 502 502 -1 -1 -1 -1 503 503 503 503 504 504 504 504 505 505 505 505 506 506 506 506 507 507 507 507 508 508 508 508 509 509 509 509 510 510 510 510 511 511 511 511 512 512 512 512 513 513 513 513 514 514 514 514 -1 -1 -1 -1 -1 -1 -1 -1 -1 -1 -1 -1 -1 -1 -1 -1 -1 -1 -1 -1 -1 -1 -1 -1 -1 -1 -1 -1 -1 -1 -1 -1 -1 -1 -1 -1 -1 -1 -1 -1 -1 -1 -1 -1 -1 -1 -1 -1 -1 -1 -1 -1 -1 -1 -1 -1 -1 -1 -1 -1 -1 -1 -1 -1 -1 -1 -1 -1 -1 -1 -1 -1 -1 -1 -1 -1 -1 -1 -1 -1 515 515 515 515 -1 -1 -1 -1 -1 -1 -1 -1 516 516 516 516 517 517 517 517 518 518 518 518 -1 -1 -1 -1 519 519 519 519 -1 -1 -1 -1 520 520 520 520 521 521 521 521 522 522 522 522 523 523 523 523 524 524 524 524 525 525 525 525 526 526 526 526 527 527 527 527 -1 -1 -1 -1 -1 -1 -1 -1 -1 -1 -1 -1 -1 -1 -1 -1 -1 -1 -1 -1 -1 -1 -1 -1 -1 -1 -1 -1 -1 -1 -1 -1 -1 -1 -1 -1 -1 -1 -1 -1 -1 -1 -1 -1 -1 -1 -1 -1 -1 -1 -1 -1 -1 -1 -1 -1 -1 -1 -1 -1 -1 -1 -1 -1 -1 -1 -1 -1 528 528 528 528 529 529 529 529 530 530 530 530 531 531 531 531 -1 -1 -1 -1 532 532 532 532 533 533 533 533 534 534 534 534 535 535 535 535 536 536 536 536 537 537 537 537 -1 -1 -1 -1 -1 -1 -1 -1 -1 -1 -1 -1 -1 -1 -1 -1 -1 -1 -1 -1 -1 -1 -1 -1 -1 -1 -1 -1 -1 -1 -1 -1 -1 -1 -1 -1 -1 -1 -1 -1 538 538 538 538 539 539 539 539 540 540 540 540 -1 -1 -1 -1 541 541 541 541 542 542 542 542 543 543 543 543 544 544 544 544 545 545 545 545 546 546 546 546 -1 -1 -1 -1 -1 -1 -1 -1 -1 -1 -1 -1 -1 -1 -1 -1 -1 -1 -1 -1 547 547 547 547 548 548 548 548 549 549 549 549 550 550 550 550 -1 -1 -1 -1 -1 -1 -1 -1 551 551 551 551 552 552 552 552 553 553 553 553 554 554 554 554 555 555 555 555 -1 -1 -1 -1 -1 -1 -1 -1 -1 -1 -1 -1 -1 -1 -1 -1 -1 -1 -1 -1 -1 -1 -1 -1 -1 -1 -1 -1 -1 -1 -1 -1 -1 -1 -1 -1 -1 -1 -1 -1 -1 -1 -1 -1 -1 -1 -1 -1 -1 -1 -1 -1 -1 -1 -1 -1 -1 -1 -1 -1 -1 -1 -1 -1 -1 -1 -1 -1 -1 -1 -1 -1 -1 -1 -1 -1 -1 -1 -1 -1 -1 -1 -1 -1 -1 -1 -1 -1 -1 -1 -1 -1 -1 -1 -1 -1 -1 -1 -1 -1 -1 -1 -1 -1 -1 -1 -1 -1 -1 -1 -1 -1 -1 -1 -1 -1 -1 -1 -1 -1 -1 -1 -1 -1 -1 -1 -1 -1 -1 -1 -1 -1 -1 -1 -1 -1 -1 -1 -1 -1 -1 -1 -1 -1 -1 -1 -1 -1 -1 -1 -1 -1 -1 -1 -1 -1 -1 -1 -1 -1 -1 -1 -1 -1 -1 -1 -1 -1 -1 -1 -1 -1 -1 -1 -1 -1 -1 -1 -1 -1 -1 -1 -1 -1 -1 -1 -1 -1 -1 -1 -1 -1 -1 -1 -1 -1 -1 -1 -1 -1 -1 -1 -1 -1 -1 -1 -1 -1 -1 -1 -1 -1 -1 -1 -1 -1 -1 -1 -1 -1 -1 -1 -1 -1 -1 -1 -1 -1 -1 -1 -1 -1 -1 -1 -1 -1 -1 -1 -1 -1 -1 -1 -1 -1 -1 -1 -1 -1 -1 -1 -1 -1 -1 -1 -1 -1 -1 -1 -1 -1 -1 -1 -1 -1 -1 -1 -1 -1 -1 -1 -1 -1 -1 -1 -1 -1 -1 -1 -1 -1 -1 -1 -1 -1 -1 -1 -1 -1 -1 -1 -1 -1 -1 -1 -1 -1 -1 -1 -1 -1 -1 -1 -1 -1 556 556 556 556 -1 -1 -1 -1 -1 -1 -1 -1 -1 -1 -1 -1 -1 -1 -1 -1 -1 -1 -1 -1 -1 -1 -1 -1 -1 -1 -1 -1 -1 -1 -1 -1 -1 -1 -1 -1 -1 -1 -1 -1 -1 -1 -1 -1 -1 -1 -1 -1 -1 -1 -1 -1 -1 -1 -1 -1 -1 -1 -1 -1 -1 -1 -1 -1 -1 -1 -1 -1 -1 -1 -1 -1 -1 -1 -1 -1 -1 -1 -1 -1 -1 -1 -1 -1 -1 -1 -1 -1 -1 -1 -1 -1 -1 -1 -1 -1 -1 -1 -1 -1 557 557 557 557 558 558 558 558 559 559 559 559 560 560 560 560 -1 -1 -1 -1 -1 -1 -1 -1 -1 -1 -1 -1 -1 -1 -1 -1 -1 -1 -1 -1 -1 -1 -1 -1 -1 -1 -1 -1 -1 -1 -1 -1 -1 -1 -1 -1 561 561 561 561 -1 -1 -1 -1 562 562 562 562 -1 -1 -1 -1 563 563 563 563 564 564 564 564 -1 -1 -1 -1 -1 -1 -1 -1 -1 -1 -1 -1 -1 -1 -1 -1 -1 -1 -1 -1 -1 -1 -1 -1 -1 -1 -1 -1 565 565 565 565 -1 -1 -1 -1 -1 -1 -1 -1 -1 -1 -1 -1 566 566 566 566 567 567 567 567 568 568 568 568 569 569 569 569 570 570 570 570 571 571 571 571 -1 -1 -1 -1 -1 -1 -1 -1 -1 -1 -1 -1 -1 -1 -1 -1 -1 -1 -1 -1 -1 -1 -1 -1 -1 -1 -1 -1 -1 -1 -1 -1 -1 -1 -1 -1 -1 -1 -1 -1 -1 -1 -1 -1 -1 -1 -1 -1 572 572 572 572 -1 -1 -1 -1 -1 -1 -1 -1 -1 -1 -1 -1 -1 -1 -1 -1 -1 -1 -1 -1 -1 -1 -1 -1 -1 -1 -1 -1 -1 -1 -1 -1 -1 -1 -1 -1 -1 -1 -1 -1 573 573 573 573 574 574 574 574 -1 -1 -1 -1 -1 -1 -1 -1 -1 -1 -1 -1 575 575 575 575 576 576 576 576 577 577 577 577 578 578 578 578 579 579 579 579 580 580 580 580 581 581 581 581 582 582 582 582 583 583 583 583 -1 -1 -1 -1 584 584 584 584 -1 -1 -1 -1 -1 -1 -1 -1 -1 -1 -1 -1 -1 -1 -1 -1 585 585 585 585 586 586 586 586 587 587 587 587 588 588 588 588 589 589 589 589 -1 -1 -1 -1 -1 -1 -1 -1 590 590 590 590 -1 -1 -1 -1 -1 -1 -1 -1 591 591 591 591 592 592 592 592 593 593 593 593 -1 -1 -1 -1 594 594 594 594 595 595 595 595 -1 -1 -1 -1 596 596 596 596 597 597 597 597 598 598 598 598 -1 -1 -1 -1 599 599 599 599 -1 -1 -1 -1 600 600 600 600 601 601 601 601 -1 -1 -1 -1 -1 -1 -1 -1 -1 -1 -1 -1 -1 -1 -1 -1 602 602 602 602 603 603 603 603 604 604 604 604 -1 -1 -1 -1 605 605 605 605 606 606 606 606 607 607 607 607 608 608 608 608 -1 -1 -1 -1 609 609 609 609 -1 -1 -1 -1 -1 -1 -1 -1 610 610 610 610 -1 -1 -1 -1 611 611 611 611 612 612 612 612 613 613 613 613 614 614 614 614 -1 -1 -1 -1 615 615 615 615 -1 -1 -1 -1 -1 -1 -1 -1 -1 -1 -1 -1 616 616 616 616 617 617 617 617 618 618 618 618 619 619 619 619 620 620 620 620 621 621 621 621 622 622 622 622 623 623 623 623 624 624 624 624 625 625 625 625 -1 -1 -1 -1 626 626 626 626 627 627 627 627 -1 -1 -1 -1 -1 -1 -1 -1 628 628 628 628 -1 -1 -1 -1 629 629 629 629 630 630 630 630 -1 -1 -1 -1 631 631 631 631 632 632 632 632 633 633 633 633 634 634 634 634 635 635 635 635 636 636 636 636 637 637 637 637 638 638 638 638 -1 -1 -1 -1 -1 -1 -1 -1 -1 -1 -1 -1 639 639 639 639 640 640 640 640 -1 -1 -1 -1 641 641 641 641 642 642 642 642 643 643 643 643 644 644 644 644 645 645 645 645 -1 -1 -1 -1 646 646 646 646 647 647 647 647 648 648 648 648 649 649 649 649 650 650 650 650 651 651 651 651 652 652 652 652 653 653 653 653 654 654 654 654 655 655 655 655 -1 -1 -1 -1 656 656 656 656 657 657 657 657 658 658 658 658 659 659 659 659 660 660 660 660 661 661 661 661 662 662 662 662 663 663 663 663 664 664 664 664 665 665 665 665 666 666 666 666 667 667 667 667 668 668 668 668 669 669 669 669 670 670 670 670 671 671 671 671 672 672 672 672 673 673 673 673 674 674 674 674 675 675 675 675 676 676 676 676 -1 -1 -1 -1 -1 -1 -1 -1 677 677 677 677 678 678 678 678 679 679 679 679 680 680 680 680 -1 -1 -1 -1 -1 -1 -1 -1 681 681 681 681 682 682 682 682 -1 -1 -1 -1 683 683 683 683 684 684 684 684 685 685 685 685 686 686 686 686 -1 -1 -1 -1 687 687 687 687 688 688 688 688 -1 -1 -1 -1 689 689 689 689 -1 -1 -1 -1 690 690 690 690 -1 -1 -1 -1 -1 -1 -1 -1 691 691 691 691 692 692 692 692 693 693 693 693 694 694 694 694 695 695 695 695 696 696 696 696 697 697 697 697 698 698 698 698 699 699 699 699 700 700 700 700 701 701 701 701 702 702 702 702 703 703 703 703 704 704 704 704 705 705 705 705 706 706 706 706 707 707 707 707 708 708 708 708 709 709 709 709 710 710 710 710 -1 -1 -1 -1 711 711 711 711 712 712 712 712 713 713 713 713 714 714 714 714 715 715 715 715 716 716 716 716 717 717 717 717 718 718 718 718 719 719 719 719 720 720 720 720 721 721 721 721 722 722 722 722 723 723 723 723 724 724 724 724 -1 -1 -1 -1 725 725 725 725 726 726 726 726 727 727 727 727 728 728 728 728 729 729 729 729 730 730 730 730 731 731 731 731 732 732 732 732 733 733 733 733 734 734 734 734 735 735 735 735 736 736 736 736 737 737 737 737 738 738 738 738 739 739 739 739 740 740 740 740 741 741 741 741 742 742 742 742 743 743 743 743 744 744 744 744 745 745 745 745 746 746 746 746 747 747 747 747 748 748 748 748 749 749 749 749 750 750 750 750 -1 -1 -1 -1 751 751 751 751 752 752 752 752 753 753 753 753 754 754 754 754 755 755 755 755 756 756 756 756 757 757 757 757 758 758 758 758 759 759 759 759 760 760 760 760 761 761 761 761 762 762 762 762 763 763 763 763 764 764 764 764 765 765 765 765 766 766 766 766 767 767 767 767 768 768 768 768 769 769 769 769 770 770 770 770 771 771 771 771 772 772 772 772 773 773 773 773 774 774 774 774 775 775 775 775 776 776 776 776 777 777 777 777 778 778 778 778 779 779 779 779 -1 -1 -1 -1 -1 -1 -1 -1 780 780 780 780 781 781 781 781 -1 -1 -1 -1 782 782 782 782 -1 -1 -1 -1 783 783 783 783 -1 -1 -1 -1 -1 -1 -1 -1 784 784 784 784 785 785 785 785 -1 -1 -1 -1 -1 -1 -1 -1 786 786 786 786 787 787 787 787 788 788 788 788 789 789 789 789 790 790 790 790 791 791 791 791 792 792 792 792 793 793 793 793 794 794 794 794 795 795 795 795 796 796 796 796 797 797 797 797 -1 -1 -1 -1 798 798 798 798 799 799 799 799 800 800 800 800 -1 -1 -1 -1 801 801 801 801 -1 -1 -1 -1 802 802 802 802 803 803 803 803 804 804 804 804 805 805 805 805 806 806 806 806 807 807 807 807 808 808 808 808 809 809 809 809 810 810 810 810 811 811 811 811 812 812 812 812 813 813 813 813 814 814 814 814 815 815 815 815 816 816 816 816 817 817 817 817 818 818 818 818 819 819 819 819 -1 -1 -1 -1 820 820 820 820 821 821 821 821 -1 -1 -1 -1 -1 -1 -1 -1 822 822 822 822 823 823 823 823 824 824 824 824 825 825 825 825 826 826 826 826 827 827 827 827 828 828 828 828 829 829 829 829 830 830