# vtk DataFile Version 3.0
d-2__ created by libgimli-v1.5.0-1-g5991b6ac
ASCII
DATASET UNSTRUCTURED_GRID
POINTS 2382 double
-2.356190992862	17.144	0
-2.356190992862	-1.302773096	0
48.473123732862	-1.302773096	0
48.473123732862	20.367	0
-186.82392195286	17.144	0
-186.82392195286	-185.770504056	0
232.94085469286	20.367	0
232.94085469286	-182.547504056	0
0	17.144	0
0.29444067725	17.137	0
0.88332203175	17.123	0
1.177762709	17.116	0
1.43846261075	17.119	0
1.95986241425	17.125	0
2.220562316	17.128	0
2.449801468	17.11825	0
2.908279772	17.09875	0
3.137518924	17.089	0
3.39602464325	17.054	0
3.91303608175	16.984	0
4.171541801	16.949	0
4.434823884	16.96	0
4.96138805	16.982	0
5.224670133	16.993	0
5.464674081	16.9725	0
5.944681977	16.9315	0
6.184685925	16.911	0
6.44261998725	16.899	0
6.95848811175	16.875	0
7.216422174	16.863	0
7.45339321525	16.8555	0
7.92733529775	16.8405	0
8.164306339	16.833	0
8.41035662275	16.817	0
8.90245719025	16.785	0
9.148507474	16.769	0
9.4023442505	16.7855	0
9.9100178035	16.8185	0
10.16385458	16.835	0
10.4099077325	16.8415	0
10.9020140375	16.8545	0
11.14806719	16.861	0
11.280715965	17.026	0
11.546013515	17.356	0
11.67866229	17.521	0
11.924353925	17.56675	0
12.415737195	17.65825	0
12.66142883	17.704	0
12.9139600525	17.764	0
13.4190224975	17.884	0
13.67155372	17.944	0
13.886257375	17.9875	0
14.315664685	18.0745	0
14.53036834	18.118	0
14.774604615	18.18975	0
15.263077165	18.33325	0
15.50731344	18.405	0
15.73686552	18.473	0
16.19596968	18.609	0
16.42552176	18.677	0
16.681462585	18.7765	0
17.193344235	18.9755	0
17.44928506	19.075	0
17.67824435	19.1075	0
18.13616293	19.1725	0
18.36512222	19.205	0
18.6244187	19.25925	0
19.14301166	19.36775	0
19.40230814	19.422	0
19.6195332725	19.46525	0
20.0539835375	19.55175	0
20.27120867	19.595	0
20.549589585	19.61975	0
21.106351415	19.66925	0
21.38473233	19.694	0
21.6001952275	19.72475	0
22.0311210225	19.78625	0
22.24658392	19.817	0
22.5138850625	19.8515	0
23.0484873475	19.9205	0
23.31578849	19.955	0
23.537826025	19.99175	0
23.981901095	20.06525	0
24.20393863	20.102	0
24.4980082525	20.13775	0
25.0861474975	20.20925	0
25.38021712	20.245	0
25.5907268925	20.238	0
26.0117464375	20.224	0
26.22225621	20.217	0
26.4878668775	20.23475	0
27.0190882125	20.27025	0
27.28469888	20.288	0
27.5262876275	20.31075	0
28.0094651225	20.35625	0
28.25105387	20.379	0
28.49748106	20.40225	0
28.99033544	20.44875	0
29.23676263	20.472	0
29.49916829	20.47225	0
30.02397961	20.47275	0
30.28638527	20.473	0
30.52305541	20.45075	0
30.99639569	20.40625	0
31.23306583	20.384	0
31.48030758	20.37175	0
31.97479108	20.34725	0
32.22203283	20.335	0
32.4838273	20.31775	0
33.00741624	20.28325	0
33.26921071	20.266	0
33.4931141325	20.2745	0
33.9409209775	20.2915	0
34.1648244	20.3	0
34.4381192075	20.289	0
34.9847088225	20.267	0
35.25800363	20.256	0
35.5022834625	20.26525	0
35.9908431275	20.28375	0
36.23512296	20.293	0
36.47338864	20.322	0
36.94992	20.38	0
37.18818568	20.409	0
37.4450597025	20.402	0
37.9588077475	20.388	0
38.21568177	20.381	0
38.4663478625	20.38225	0
38.9676800475	20.38475	0
39.21834614	20.386	0
39.4563243425	20.397	0
39.9322807475	20.419	0
40.17025895	20.43	0
40.416018655	20.42775	0
40.907538065	20.42325	0
41.15329777	20.421	0
41.4051669375	20.427	0
41.9089052725	20.439	0
42.16077444	20.445	0
42.4095292775	20.44125	0
42.9070389525	20.43375	0
43.15579379	20.43	0
43.4050271925	20.41825	0
43.9034939975	20.39475	0
44.1527274	20.383	0
44.40146514	20.3795	0
44.89894062	20.3725	0
45.14767836	20.369	0
45.389991955	20.3685	0
45.874619145	20.3675	0
46.11693274	20.367	0
2.8524332675947	16.795270621715	0
5.4441863449838	16.625637430152	0
7.8756018338672	16.476862150323	0
10.342857423795	16.34858639629	0
18.146780413246	18.822480972381	0
11.836547647932	17.197485091102	0
21.327757986584	18.939615644933	0
18.547664101159	18.958494333314	0
15.77629386639	18.058647271592	0
23.604625995549	19.621284919926	0
25.410499588161	19.802356060031	0
31.926815331391	19.953759598027	0
36.077496096085	19.798629795333	0
33.925307086812	19.91354342522	0
46.047884063289	19.768116701495	0
29.127773132854	20.085517307405	0
41.000039190381	20.027321855042	0
2.3826391406414	16.753268625654	0
5.9456764677125	16.493404887096	0
8.2865975370509	16.542730079567	0
7.3349773179728	16.4230316483	0
20.891380941596	19.217044497157	0
21.95312064192	19.432263113047	0
22.216788426937	19.572903083692	0
21.889210712288	18.928483181738	0
18.673790732007	18.528336489363	0
14.39724338282	17.745569052209	0
24.522339106689	19.304560927934	0
24.11608900713	19.648617617388	0
26.004985724881	19.852397827287	0
31.384282708892	19.90758489148	0
37.105629314395	20.09168163632	0
36.47624454096	19.941218861469	0
35.544220588847	19.854836489516	0
33.418334345696	19.847814758636	0
45.446007211776	19.950696145083	0
28.616222189166	20.077220615375	0
43.436074357904	20.034600013084	0
40.473275511779	20.076650116999	0
8.9110248676795	16.409718457277	0
12.750670168041	16.99746069626	0
20.31952658754	19.149137790024	0
30.985447750509	20.04028916136	0
45.032396830149	20.051812203726	0
28.203214581801	20.08845918698	0
43.020230788378	20.146192314143	0
43.985997454667	19.943746386797	0
40.068076455711	20.151160370559	0
30.383129968112	20.165432296958	0
27.450930412104	19.930793977805	0
42.339269169439	20.006986905598	0
44.324324784433	20.056299816477	0
39.416867434182	19.942609566326	0
3.2274402747836	16.827038054855	0
5.0712342966613	16.739249059437	0
4.3943855216137	16.508644531165	0
9.9892570248201	16.469519021792	0
19.290998667888	19.100355975771	0
23.182434690267	19.619809041429	0
32.350779538739	20.01404316374	0
34.33014649174	19.990218586671	0
29.432943147694	20.207230717152	0
41.319738555876	20.141819957766	0
2.0692185147674	16.841522736178	0
1.0337648458515	16.593806180291	0
6.3049519510093	16.570237806115	0
8.581953058262	16.523371690478	0
7.0109562227697	16.536315652145	0
16.654467701734	18.429182798891	0
12.894866352516	17.410535034461	0
21.255375012379	19.374439612584	0
19.705375296154	19.104131768265	0
23.05846637	-1.302773096	0
16.26478955995	18.253138844978	0
24.43741249256	19.785489926236	0
26.413131792716	19.916183595803	0
37.976864958196	19.99328602911	0
37.3667352299	20.177603670183	0
35.110464706142	19.956244994548	0
33.08529497436	19.967440994869	0
9.250643986529	16.445472914217	0
11.465796853704	16.697869476524	0
22.437059564976	19.602710749095	0
30.697274667959	20.180585192042	0
27.865169451377	19.968610191071	0
42.71314342655	20.143283104364	0
39.773126996837	20.123206414038	0
30.110922906194	20.221879786547	0
27.142737773076	19.9896388031	0
41.991768747706	20.146661383654	0
44.409986996885	19.569853611881	0
44.676801375028	19.999317119599	0
39.045025606374	20.057096027799	0
3.5438172632739	16.720656310978	0
4.7643788455646	16.71426675751	0
3.9260721419676	16.607514076148	0
22.791949328787	19.545586075447	0
29.522622339795	19.834889151453	0
29.778639116649	20.172446266104	0
41.390901091224	19.727740158429	0
41.652399704184	20.103387570859	0
1.7337846588938	16.771061191567	0
1.3783438126624	16.784807354369	0
1.508033800038	16.329636559774	0
6.2923263852316	16.0532778234	0
6.6503152671609	16.493373596097	0
8.3942834067225	16.060143891601	0
19.973721613482	18.405031257001	0
14.942905922674	17.459019025804	0
12.245392071665	16.512632733796	0
22.419158008113	19.221092258952	0
10.989014800332	16.375242580529	0
13.938760261859	17.582407027944	0
24.84777259467	19.732097544085	0
26.556950658142	19.383526136944	0
38.341624208015	20.090776275946	0
37.452205883845	19.826691214113	0
34.719663994274	19.919076333794	0
32.723009468017	19.93560455211	0
9.9160151018889	15.950552941173	0
9.6083291579672	16.390206505261	0
12.601754660092	17.395641159156	0
31.004222379695	19.522130040123	0
28.27755869397	19.664202406655	0
42.892345971717	19.685349647821	0
39.994693604652	19.704576723697	0
26.797105370329	19.89341481755	0
48.473123732862	12.367	0
3.2010114494077	16.482448144128	0
4.9551184885473	16.382837490515	0
13.668017986538	17.107982672178	0
30.082149663086	19.825790767039	0
41.900408452149	19.735944313234	0
2.0478367643637	16.437310804987	0
6.8856363397552	16.025587287393	0
22.496010287892	18.404740377372	0
11.89166350167	16.516709179584	0
17.056058592226	18.474824089241	0
38.93686984136	19.547667634909	0
38.686600664888	20.022799235384	0
37.640067649086	20.157564997596	0
34.411595456757	19.52776774037	0
32.403893364756	19.526719905842	0
16.841003297504	17.960470995354	0
27.165507076588	19.567046940532	0
15.109715989949	17.921133570108	0
33.015514771312	19.503282816659	0
11.579626549977	17.026746693261	0
12.286339166087	17.208982523512	0
36.3995413945	19.47698672649	0
36.779847385688	20.081734197137	0
16.219917741321	17.560334046811	0
13.594660059219	17.599982045571	0
9.1763085787632	15.868913587594	0
3.9346509947424	16.112743612059	0
-2.356190992862	9.144	0
38.36208995538	19.673388145989	0
35.054305409403	19.482889237527	0
11.600317921732	16.222697174901	0
19.276487702235	18.629081279806	0
47.295028236431	20.367	0
30.598095722463	19.839480638711	0
5.488419356485	15.869703883497	0
2.6512875939078	16.210939594723	0
36.893891129477	19.672730636365	0
3.5885593558788	16.378625978759	0
14.751011232431	17.886779164853	0
44.997734813748	19.561661231651	0
30.437949571928	19.302562668531	0
36.731493068551	19.03125036083	0
3.3296023645928	15.977904234299	0
18.054350910812	18.119218653457	0
28.289826161514	18.915261719286	0
23.154083852621	19.050724837772	0
25.83424780235	19.184147670728	0
28.97073567442	19.476404817911	0
43.698975664902	19.215629986799	0
40.763683108594	19.369230848201	0
45.640159264868	19.159792071002	0
42.315708228685	19.443257321762	0
7.5533303047068	15.778648382751	0
12.662804523974	16.437482595333	0
13.239149720813	16.609720873358	0
12.072071043349	16.848644031757	0
33.73579523409	19.161125343861	0
21.577633637472	18.206725978928	0
29.747243464286	19.244676509676	0
3.7915538838817	15.379380375452	0
17.567746554604	18.659905158388	0
-1.178095496431	17.144	0
13.137760668489	15.740883707756	0
31.681086654299	19.172208930123	0
[...]
CELL_DATA 4396
SCALARS Marker double 1
LOOKUP_TABLE default
-1 -1 -1 -1 0 0 0 0 1 1 1 1 2 2 2 2 3 3 3 3 4 4 4 4 5 5 5 5 6 6 6 6 7 7 7 7 8 8 8 8 9 9 9 9 10 10 10 10 11 11 11 11 12 12 12 12 13 13 13 13 14 14 14 14 15 15 15 15 16 16 16 16 17 17 17 17 -1 -1 -1 -1 18 18 18 18 19 19 19 19 20 20 20 20 21 21 21 21 22 22 22 22 23 23 23 23 24 24 24 24 25 25 25 25 26 26 26 26 27 27 27 27 28 28 28 28 29 29 29 29 30 30 30 30 31 31 31 31 32 32 32 32 33 33 33 33 34 34 34 34 35 35 35 35 36 36 36 36 37 37 37 37 38 38 38 38 39 39 39 39 40 40 40 40 41 41 41 41 42 42 42 42 43 43 43 43 44 44 44 44 45 45 45 45 46 46 46 46 47 47 47 47 48 48 48 48 49 49 49 49 50 50 50 50 51 51 51 51 52 52 52 52 53 53 53 53 54 54 54 54 55 55 55 55 56 56 56 56 57 57 57 57 58 58 58 58 59 59 59 59 60 60 60 60 61 61 61 61 62 62 62 62 63 63 63 63 64 64 64 64 65 65 65 65 66 66 66 66 67 67 67 67 68 68 68 68 69 69 69 69 70 70 70 70 71 71 71 71 72 72 72 72 73 73 73 73 74 74 74 74 75 75 75 75 76 76 76 76 77 77 77 77 78 78 78 78 79 79 79 79 80 80 80 80 81 81 81 81 82 82 82 82 83 83 83 83 84 84 84 84 85 85 85 85 86 86 86 86 87 87 87 87 88 88 88 88 89 89 89 89 90 90 90 90 91 91 91 91 92 92 92 92 93 93 93 93 94 94 94 94 95 95 95 95 96 96 96 96 97 97 97 97 98 98 98 98 99 99 99 99 100 100 100 100 101 101 101 101 102 102 102 102 103 103 103 103 104 104 104 104 105 105 105 105 106 106 106 106 107 107 107 107 108 108 108 108 109 109 109 109 110 110 110 110 111 111 111 111 112 112 112 112 113 113 113 113 114 114 114 114 115 115 115 115 116 116 116 116 117 117 117 117 118 118 118 118 119 119 119 119 120 120 120 120 121 121 121 121 122 122 122 122 123 123 123 123 124 124 124 124 125 125 125 125 126 126 126 126 127 127 127 127 128 128 128 128 129 129 129 129 130 130 130 130 131 131 131 131 132 132 132 132 133 133 133 133 134 134 134 134 135 135 135 135 -1 -1 -1 -1 136 136 136 136 137 137 137 137 138 138 138 138 139 139 139 139 140 140 140 140 141 141 141 141 142 142 142 142 -1 -1 -1 -1 143 143 143 143 144 144 144 144 145 145 145 145 146 146 146 146 147 147 147 147 148 148 148 148 149 149 149 149 150 150 150 150 151 151 151 151 152 152 152 152 153 153 153 153 154 154 154 154 155 155 155 155 156 156 156 156 157 157 157 157 158 158 158 158 159 159 159 159 160 160 160 160 161 161 161 161 162 162 162 162 163 163 163 163 164 164 164 164 165 165 165 165 166 166 166 166 167 167 167 167 168 168 168 168 169 169 169 169 170 170 170 170 171 171 171 171 172 172 172 172 173 173 173 173 174 174 174 174 175 175 175 175 176 176 176 176 177 177 177 177 178 178 178 178 179 179 179 179 180 180 180 180 181 181 181 181 182 182 182 182 183 183 183 183 184 184 184 184 185 185 185 185 186 186 186 186 187 187 187 187 188 188 188 188 189 189 189 189 -1 -1 -1 -1 190 190 190 190 191 191 191 191 192 192 192 192 193 193 193 193 194 194 194 194 195 195 195 195 196 196 196 196 197 197 197 197 198 198 198 198 199 199 199 199 200 200 200 200 201 201 201 201 202 202 202 202 203 203 203 203 204 204 204 204 205 205 205 205 206 206 206 206 207 207 207 207 208 208 208 208 -1 -1 -1 -1 209 209 209 209 210 210 210 210 211 211 211 211 -1 -1 -1 -1 212 212 212 212 213 213 213 213 214 214 214 214 215 215 215 215 216 216 216 216 217 217 217 217 218 218 218 218 219 219 219 219 220 220 220 220 221 221 221 221 222 222 222 222 223 223 223 223 224 224 224 224 225 225 225 225 226 226 226 226 227 227 227 227 228 228 228 228 229 229 229 229 230 230 230 230 231 231 231 231 232 232 232 232 233 233 233 233 234 234 234 234 235 235 235 235 236 236 236 236 237 237 237 237 238 238 238 238 239 239 239 239 240 240 240 240 241 241 241 241 242 242 242 242 243 243 243 243 244 244 244 244 245 245 245 245 246 246 246 246 247 247 247 247 248 248 248 248 249 249 249 249 250 250 250 250 251 251 251 251 252 252 252 252 253 253 253 253 254 254 254 254 255 255 255 255 256 256 256 256 257 257 257 257 258 258 258 258 259 259 259 259 260 260 260 260 261 261 261 261 262 262 262 262 263 263 263 263 264 264 264 264 265 265 265 265 266 266 266 266 267 267 267 267 268 268 268 268 269 269 269 269 270 270 270 270 271 271 271 271 272 272 272 272 273 273 273 273 274 274 274 274 275 275 275 275 276 276 276 276 277 277 277 277 278 278 278 278 279 279 279 279 280 280 280 280 281 281 281 281 282 282 282 282 283 283 283 283 284 284 284 284 285 285 285 285 286 286 286 286 287 287 287 287 288 288 288 288 289 289 289 289 290 290 290 290 291 291 291 291 292 292 292 292 293 293 293 293 294 294 294 294 295 295 295 295 296 296 296 296 297 297 297 297 298 298 298 298 299 299 299 299 300 300 300 300 301 301 301 301 302 302 302 302 303 303 303 303 304 304 304 304 305 305 305 305 306 306 306 306 307 307 307 307 308 308 308 308 309 309 309 309 310 310 310 310 311 311 311 311 312 312 312 312 313 313 313 313 314 314 314 314 315 315 315 315 316 316 316 316 317 317 317 317 318 318 318 318 319 319 319 319 320 320 320 320 321 321 321 321 322 322 322 322 323 323 323 323 324 324 324 324 325 325 325 325 326 326 326 326 327 327 327 327 328 328 328 328 329 329 329 329 330 330 330 330 331 331 331 331 332 332 332 332 333 333 333 333 334 334 334 334 335 335 335 335 336 336 336 336 337 337 337 337 338 338 338 338 339 339 339 339 340 340 340 340 341 341 341 341 342 342 342 342 343 343 343 343 344 344 344 344 345 345 345 345 346 346 346 346 -1 -1 -1 -1 347 347 347 347 348 348 348 348 349 349 349 349 350 350 350 350 351 351 351 351 352 352 352 352 353 353 353 353 354 354 354 354 355 355 355 355 356 356 356 356 357 357 357 357 358 358 358 358 359 359 359 359 360 360 360 360 361 361 361 361 362 362 362 362 363 363 363 363 364 364 364 364 365 365 365 365 366 366 366 366 367 367 367 367 368 368 368 368 369 369 369 369 370 370 370 370 371 371 371 371 372 372 372 372 373 373 373 373 374 374 374 374 375 375 375 375 376 376 376 376 377 377 377 377 378 378 378 378 379 379 379 379 380 380 380 380 381 381 381 381 382 382 382 382 383 383 383 383 384 384 384 384 385 385 385 385 386 386 386 386 387 387 387 387 388 388 388 388 389 389 389 389 390 390 390 390 391 391 391 391 392 392 392 392 393 393 393 393 394 394 394 394 395 395 395 395 396 396 396 396 397 397 397 397 398 398 398 398 399 399 399 399 400 400 400 400 401 401 401 401 402 402 402 402 403 403 403 403 404 404 404 404 405 405 405 405 406 406 406 406 407 407 407 407 408 408 408 408 409 409 409 409 410 410 410 410 411 411 411 411 412 412 412 412 413 413 413 413 414 414 414 414 415 415 415 415 416 416 416 416 417 417 417 417 418 418 418 418 419 419 419 419 420 420 420 420 421 421 421 421 422 422 422 422 423 423 423 423 424 424 424 424 425 425 425 425 426 426 426 426 427 427 427 427 428 428 428 428 429 429 429 429 430 430 430 430 431 431 431 431 432 432 432 432 433 433 433 433 434 434 434 434 435 435 435 435 436 436 436 436 437 437 437 437 438 438 438 438 439 439 439 439 440 440 440 440 441 441 441 441 442 442 442 442 443 443 443 443 444 444 444 444 445 445 445 445 446 446 446 446 447 447 447 447 448 448 448 448 449 449 449 449 450 450 450 450 451 451 451 451 452 452 452 452 453 453 453 453 454 454 454 454 455 455 455 455 456 456 456 456 457 457 457 457 458 458 458 458 459 459 459 459 460 460 460 460 461 461 461 461 462 462 462 462 463 463 463 463 464 464 464 464 465 465 465 465 466 466 466 466 467 467 467 467 468 468 468 468 469 469 469 469 470 470 470 470 471 471 471 471 472 472 472 472 473 473 473 473 474 474 474 474 475 475 475 475 476 476 476 476 477 477 477 477 478 478 478 478 479 479 479 479 480 480 480 480 481 481 481 481 482 482 482 482 483 483 483 483 484 484 484 484 485 485 485 485 486 486 486 486 487 487 487 487 488 488 488 488 489 489 489 489 490 490 490 490 491 491 491 491 492 492 492 492 493 493 493 493 494 494 494 494 495 495 495 495 496 496 496 496 -1 -1 -1 -1 497 497 497 497 498 498 498 498 499 499 499 499 500 500 500 500 501 501 501 501 502 502 502 502 503 503 503 503 504 504 504 504 505 505 505 505 506 506 506 506 507 507 507 507 508 508 508 508 509 509 509 509 510 510 510 510 511 511 511 511 512 512 512 512 513 513 513 513 514 514 514 514 515 515 515 515 516 516 516 516 517 517 517 517 518 518 518 518 519 519 519 519 520 520 520 520 521 521 521 521 522 522 522 522 523 523 523 523 524 524 524 524 525 525 525 525 526 526 526 526 527 527 527 527 528 528 528 528 529 529 529 529 530 530 530 530 531 531 531 531 532 532 532 532 533 533 533 533 534 534 534 534 535 535 535 535 536 536 536 536 537 537 537 537 538 538 538 538 539 539 539 539 540 540 540 540 -1 -1 -1 -1 541 541 541 541 542 542 542 542 543 543 543 543 544 544 544 544 545 545 545 545 546 546 546 546 547 547 547 547 548 548 548 548 549 549 549 549 550 550 550 550 551 551 551 551 552 552 552 552 553 553 553 553 554 554 554 554 555 555 555 555 556 556 556 556 557 557 557 557 558 558 558 558 559 559 559 559 560 560 560 560 561 561 561 561 562 562 562 562 563 563 563 563 564 564 564 564 565 565 565 565 566 566 566 566 567 567 567 567 568 568 568 568 569 569 569 569 570 570 570 570 571 571 571 571 572 572 572 572 573 573 573 573 574 574 574 574 575 575 575 575 576 576 576 576 577 577 577 577 578 578 578 578 579 579 579 579 580 580 580 580 581 581 581 581 582 582 582 582 583 583 583 583 584 584 584 584 585 585 585 585 586 586 586 586 587 587 587 587 588 588 588 588 589 589 589 589 590 590 590 590 591 591 591 591 592 592 592 592 593 593 593 593 594 594 594 594 595 595 595 595 596 596 596 596 597 597 597 597 598 598 598 598 599 599 599 599 600 600 600 600 601 601 601 601 602 602 602 602 603 603 603 603 604 604 604 604 605 605 605 605 606 606 606 606 607 607 607 607 608 608 608 608 609 609 609 609 610 610 610 610 611 611 611 611 612 612 612 612 613 613 613 613 614 614 614 614 615 615 615 615 616 616 616 616 617 617 617 617 618 618 618 618 619 619 619 619 620 620 620 620 621 621 621 621 622 622 622 622 623 623 623 623 624 624 624 624 625 625 625 625 626 626 626 626 627 627 627 627 628 628 628 628 629 629 629 629 630 630 630 630 -1 -1 -1 -1 631 631 631 631 632 632 632 632 633 633 633 633 634 634 634 634 635 635 635 635 636 636 636 636 637 637 637 637 638 638 638 638 639 639 639 639 640 640 640 640 641 641 641 641 642 642 642 642 643 643 643 643 644 644 644 644 645 645 645 645 -1 -1 -1 -1 646 646 646 646 -1 -1 -1 -1 647 647 647 647 648 648 648 648 649 649 649 649 650 650 650 650 651 651 651 651 652 652 652 652 653 653 653 653 654 654 654 654 655 655 655 655 656 656 656 656 657 657 657 657 658 658 658 658 659 659 659 659 660 660 660 660 661 661 661 661 662 662 662 662 663 663 663 663 664 664 664 664 665 665 665 665 666 666 666 666 667 667 667 667 668 668 668 668 669 669 669 669 670 670 670 670 671 671 671 671 672 672 672 672 673 673 673 673 674 674 674 674 675 675 675 675 676 676 676 676 677 677 677 677 678 678 678 678 679 679 679 679 680 680 680 680 681 681 681 681 682 682 682 682 683 683 683 683 684 684 684 684 685 685 685 685 686 686 686 686 687 687 687 687 688 688 688 688 689 689 689 689 690 690 690 690 691 691 691 691 692 692 692 692 693 693 693 693 694 694 694 694 695 695 695 695 696 696 696 696 697 697 697 697 698 698 698 698 699 699 699 699 700 700 700 700 701 701 701 701 702 702 702 702 703 703 703 703 704 704 704 704 705 705 705 705 706 706 706 706 707 707 707 707 708 708 708 708 709 709 709 709 710 710 710 710 711 711 711 711 712 712 712 712 713 713 713 713 714 714 714 714 715 715 715 715 716 716 716 716 717 717 717 717 718 718 718 718 719 719 719 719 720 720 720 720 721 721 721 721 722 722 722 722 723 723 723 723 724 724 724 724 725 725 725 725 -1 -1 -1 -1 726 726 726 726 727 727 727 727 728 728 728 728 729 729 729 729 730 730 730 730 731 731 731 731 732 732 732 732 733 733 733 733 734 734 734 734 735 735 735 735 736 736 736 736 737 737 737 737 738 738 738 738 739 739 739 739 740 740 740 740 741 741 741 741 742 742 742 742 743 743 743 743 744 744 744 744 745 745 745 745 746 746 746 746 747 747 747 747 748 748 748 748 749 749 749 749 750 750 750 750 751 751 751 751 752 752 752 752 753 753 753 753 754 754 754 754 -1 -1 -1 -1 -1 -1 -1 -1 -1 -1 -1 -1 755 755 755 755 756 756 756 756 757 757 757 757 758 758 758 758 -1 -1 -1 -1 -1 -1 -1 -1 -1 -1 -1 -1 759 759 759 759 760 760 760 760 761 761 761 761 762 762 762 762 -1 -1 -1 -1 -1 -1 -1 -1 -1 -1 -1 -1 -1 -1 -1 -1 -1 -1 -1 -1 -1 -1 -1 -1 -1 -1 -1 -1 -1 -1 -1 -1 -1 -1 -1 -1 -1 -1 -1 -1 -1 -1 -1 -1 -1 -1 -1 -1 -1 -1 -1 -1 -1 -1 -1 -1 -1 -1 -1 -1 -1 -1 -1 -1 -1 -1 -1 -1 -1 -1 -1 -1 763 763 763 763 -1 -1 -1 -1 764 764 764 764 765 765 765 765 -1 -1 -1 -1 766 766 766 766 767 767 767 767 768 768 768 768 769 769 769 769 770 770 770 770 771 771 771 771 -1 -1 -1 -1 -1 -1 -1 -1 -1 -1 -1 -1 -1 -1 -1 -1 772 772 772 772 773 773 773 773 774 774 774 774 775 775 775 775 -1 -1 -1 -1 -1 -1 -1 -1 -1 -1 -1 -1 -1 -1 -1 -1 -1 -1 -1 -1 -1 -1 -1 -1 -1 -1 -1 -1 -1 -1 -1 -1 -1 -1 -1 -1 -1 -1 -1 -1 -1 -1 -1 -1 -1 -1 -1 -1 -1 -1 -1 -1 -1 -1 -1 -1 -1 -1 -1 -1 -1 -1 -1 -1 -1 -1 -1 -1 -1 -1 -1 -1 -1 -1 -1 -1 -1 -1 -1 -1 -1 -1 -1 -1 -1 -1 -1 -1 776 776 776 776 777 777 777 777 778 778 778 778 779 779 779 779 780 780 780 780 -1 -1 -1 -1 781 781 781 781 782 782 782 782 -1 -1 -1 -1 -1 -1 -1 -1 -1 -1 -1 -1 -1 -1 -1 -1 783 783 783 783 784 784 784 784 785 785 785 785 786 786 786 786 787 787 787 787 788 788 788 788 789 789 789 789 790 790 790 790 791 791 791 791 792 792 792 792 793 793 793 793 794 794 794 794 795 795 795 795 -1 -1 -1 -1 796 796 796 796 797 797 797 797 -1 -1 -1 -1 -1 -1 -1 -1 798 798 798 798 -1 -1 -1 -1 -1 -1 -1 -1 -1 -1 -1 -1 -1 -1 -1 -1 -1 -1 -1 -1 -1 -1 -1 -1 -1 -1 -1 -1 799 799 799 799 800 800 800 800 801 801 801 801 -1 -1 -1 -1 -1 -1 -1 -1 -1 -1 -1 -1 -1 -1 -1 -1 -1 -1 -1 -1 802 802 802 802 803 803 803 803 804 804 804 804 805 805 805 805 806 806 806 806 807 807 807 807 -1 -1 -1 -1 -1 -1 -1 -1 -1 -1 -1 -1 -1 -1 -1 -1 -1 -1 -1 -1 -1 -1 -1 -1 808 808 808 808 809 809 809 809 -1 -1 -1 -1 -1 -1 -1 -1 810 810 810 810 -1 -1 -1 -1 811 811 811 811 -1 -1 -1 -1 812 812 812 812 813 813 813 813 814 814 814 814 815 815 815 815 816 816 816 816 -1 -1 -1 -1 817 817 817 817 818 818 818 818 819 819 819 819 820 820 820 820 821 821 821 821 822 822 822 822 -1 -1 -1 -1 -1 -1 -1 -1 -1 -1 -1 -1 -1 -1 -1 -1 -1 -1 -1 -1 -1 -1 -1 -1 -1 -1 -1 -1 -1 -1 -1 -1 -1 -1 -1 -1 -1 -1 -1 -1 -1 -1 -1 -1 -1 -1 -1 -1 -1 -1 -1 -1 -1 -1 -1 -1 -1 -1 -1 -1 -1 -1 -1 -1 -1 -1 -1 -1 -1 -1 -1 -1 -1 -1 -1 -1 -1 -1 -1 -1 -1 -1 -1 -1 -1 -1 -1 -1 823 823 823 823 824 824 824 824 -1 -1 -1 -1 -1 -1 -1 -1 -1 -1 -1 -1 -1 -1 -1 -1 -1 -1 -1 -1 -1 -1 -1 -1 -1 -1 -1 -1 -1 -1 -1 -1 -1 -1 -1 -1 -1 -1 -1 -1 -1 -1 -1 -1 -1 -1 -1 -1 -1 -1 -1 -1 -1 -1 -1 -1 -1 -1 -1 -1 -1 -1 -1 -1 -1 -1 -1 -1 -1 -1 -1 -1 -1 -1 -1 -1 -1 -1 -1 -1 -1 -1 -1 -1 -1 -1 -1 -1 -1 -1 -1 -1 -1 -1 -1 -1 -1 -1 -1 -1 -1 -1 -1 -1 -1 -1 -1 -1 -1 -1 -1 -1 -1 -1 -1 -1 -1 -1 -1 -1 -1 -1 -1 -1 -1 -1 -1 -1 -1 -1 -1 -1 -1 -1 -1 -1 -1 -1 -1 -1 -1 -1 -1 -1 -1 -1 -1 -1 -1 -1 -1 -1 -1 -1 -1 -1 -1 -1 -1 -1 -1 -1 -1 -1 -1 -1 -1 -1 -1 -1 -1 -1 -1 -1 -1 -1 -1 -1 -1 -1 -1 -1 -1 -1 -1 -1 -1 -1 -1 -1 -1 -1 -1 -1 -1 -1 -1 -1 -1 -1 -1 -1 -1 -1 -1 -1 -1 -1 -1 -1 -1 -1 -1 -1 -1 -1 -1 -1 -1 -1 -1 -1 -1 -1 -1 -1 -1 -1 -1 -1 -1 -1 -1 -1 -1 -1 -1 -1 -1 -1 -1 -1 -1 -1 -1 -1 -1 -1 -1 -1 -1 -1 -1 -1 -1 -1 -1 -1 -1 -1 -1 -1 -1 -1 -1 -1 -1 -1 -1 -1 -1 -1 -1 -1 -1 -1 -1 -1 -1 -1 -1 -1 -1 -1 -1 -1 -1 -1 -1 -1 -1 -1 -1 -1 -1 -1 -1 -1 -1 -1 -1 -1 -1 -1 -1 -1 -1 -1 -1 -1 -1 -1 -1 -1 -1 -1 -1 -1 -1 -1 -1 -1 -1 -1 -1 -1 -1 -1 -1 -1 -1 -1 -1 -1 -1 -1 -1 -1 -1 -1 -1 -1 -1 -1 -1 -1 -1 -1 -1 -1 -1 -1 -1 -1 -1 -1 -1 -1 -1 -1 -1 -1 -1 -1 -1 -1 -1 -1 -1 -1 -1 -1 -1 -1 -1 -1 -1 -1 -1 -1 -1 -1 -1 -1 -1 -1 -1 -1 -1 -1 -1 -1 -1 -1 -1 -1 -1 -1 -1 -1 -1 -1 -1 -1 -1 -1 -1 -1 -1 -1 -1 -1 -1 -1 -1 -1 -1 -1 -1 -1 -1 -1 -1 -1 -1 -1 -1 -1 -1 -1 -1 -1 -1 -1 -1 -1 -1 -1 -1 -1 -1 -1 -1 -1 -1 -1 -1 -1 -1 -1 -1 -1 -1 -1 -1 -1 -1 -1 -1 -1 -1 -1 -1 -1 -1 -1 -1 -1 -1 -1 -1 -1 -1 -1 -1 -1 -1 -1 -1 -1 -1 -1 -1 -1 -1 -1 -1 -1 -1 -1 -1 -1 -1 -1 -1 -1 -1 -1 -1 -1 -1 -1 -1 -1 -1 -1 -1 -1 -1 -1 -1 -1 -1 -1 -1 -1 -1 -1 -1 -1 -1 -1 -1 -1 -1 -1 -1 -1 -1 -1 -1 -1 -1 -1 -1 -1 -1 -1 -1 -1 -1 -1 -1 -1 -1 -1 -1 -1 -1 -1 -1 -1 -1 -1 -1 -1 -1 -1 -1 -1 -1 -1 -1 -1 -1 -1 -1 -1 -1 -1 -1 -1 -1 -1 -1 -1 -1 -1 -1 -1 -1 -1 -1 -1 -1 -1 -1 -1 -1 -1 -1 -1 -1 -1 -1 -1 -1 -1 -1 -1 -1 -1 -1 -1 -1 -1 -1 -1 -1 -1 -1 -1 -1 -1 -1 -1 -1 -1 -1 -1 
POINT_DATA 2382
SCALARS ab-pot double 1
LOOKUP_TABLE default